 Gaussian 16, Revision A.03,
 Gaussian 16:  ES64L-G16RevA.03 25-Dec-2016

 -----------------------------------------------------------------
 # mp2/aug-cc-pVTZ opt=(z-matrix,Tight,CalcAll,MaxCycles=100) freq
 -----------------------------------------------------------------

 ------------------
 Optmization Linear
 ------------------
 Symbolic Z-matrix:
 Charge =  0 Multiplicity = 1

 SCF Done:  E(RHF) =  -112.441563682     A.U. after   10 cycles
 E2 =    -0.4833889660D+00 EUMP2 =    -0.11292495264751D+03
 E2 =    -0.4833889660D+00 EUMP2 =    -0.11292495264751D+03
 SCF Done:  E(RHF) =  -112.442592141     A.U. after   10 cycles
 E2 =    -0.4832367067D+00 EUMP2 =    -0.11292582884765D+03
 E2 =    -0.4832367067D+00 EUMP2 =    -0.11292582884765D+03
 SCF Done:  E(RHF) =  -112.442824334     A.U. after   10 cycles
 E2 =    -0.4831763894D+00 EUMP2 =    -0.11292600072304D+03
 E2 =    -0.4831763894D+00 EUMP2 =    -0.11292600072304D+03
 SCF Done:  E(RHF) =  -112.442919951     A.U. after    7 cycles
 E2 =    -0.4830851395D+00 EUMP2 =    -0.11292600509061D+03
 E2 =    -0.4830851395D+00 EUMP2 =    -0.11292600509061D+03
 SCF Done:  E(RHF) =  -112.442923196     A.U. after    4 cycles
 E2 =    -0.4830819129D+00 EUMP2 =    -0.11292600510864D+03
 E2 =    -0.4830819129D+00 EUMP2 =    -0.11292600510864D+03
 Optimization completed.
    -- Stationary point found.
 ******    1 imaginary frequencies (negative Signs) ******
    1 imaginary frequencies ignored.
 Normal termination of Gaussian 16 at Mon Apr  3 16:07:02 2023.

 ----------------------------------------------------------------------
 #N Geom=AllCheck Guess=TCheck SCRF=Check GenChk RMP2(FC)/Aug-CC-pVTZ F
 req
 ----------------------------------------------------------------------

 Structure from the checkpoint file:  "/gscratch/scrubbed/gds001/Gau-13652.chk"
 ------------------
 Optmization Linear
 ------------------
 Charge =  0 Multiplicity = 1

                         Standard orientation:
 ---------------------------------------------------------------------
 Center     Atomic      Atomic             Coordinates (Angstroms)
 Number     Number       Type             X           Y           Z
 ---------------------------------------------------------------------
      1          7           0       -0.045593    1.735157    0.000000
      2          1           0       -0.045593    0.718336    0.000000
      3          7           0       -0.045593   -1.579535   -0.000000
      4          1           0       -1.024120   -1.840495   -0.000000
      5          1           0        0.372278   -2.016188    0.812350
      6          1           0        0.372278   -2.016188   -0.812350
      7          1           0        0.481729    2.032590    0.810992
      8          1           0        0.481729    2.032590   -0.810992
 ---------------------------------------------------------------------

 SCF Done:  E(RHF) =  -112.442923196     A.U. after    1 cycles
 E2 =    -0.4830819152D+00 EUMP2 =    -0.11292600511096D+03
 E2 =    -0.4830819152D+00 EUMP2 =    -0.11292600511096D+03

 The electronic state is 1-A'.
 Alpha  occ. eigenvalues --  -15.55316 -15.51333  -1.15520  -1.11477  -0.64079
 Alpha  occ. eigenvalues --   -0.64061  -0.60393  -0.60318  -0.44478  -0.40158
 Alpha virt. eigenvalues --    0.02456   0.04348   0.04488   0.04895   0.06357
 Alpha virt. eigenvalues --    0.07480   0.13346   0.13780   0.15086   0.15591
 Alpha virt. eigenvalues --    0.16599   0.17134   0.18757   0.21217   0.21307

 Mulliken charges:
               1
     1  N   -0.664542
     2  H    0.339310
     3  N   -0.539595
     4  H    0.172504
     5  H    0.178953
     6  H    0.178953
     7  H    0.167209
     8  H    0.167209
 Sum of Mulliken charges =  -0.00000

 Dipole moment (field-independent basis, Debye):
    X=              1.2605    Y=             -2.6994    Z=              0.0000  Tot=              2.9792
 Quadrupole moment (field-independent basis, Debye-Ang):
   XX=            -14.9239   YY=            -13.0583   ZZ=            -12.4934
   XY=              3.6470   XZ=             -0.0000   YZ=              0.0000

  Exact polarizability:  27.794  -0.097  32.225   0.000  -0.000  26.211
 Approx polarizability:  21.536   0.138  21.347  -0.000  -0.000  21.677

 ******    1 imaginary frequencies (negative Signs) ******

                      1                      2                      3
                     A"                     A'                     A"
 Frequencies --    -28.8430                95.2634               115.8773
 Red. masses --      1.0344                 1.1829                 1.0351
 Frc consts  --      0.0005                 0.0063                 0.0082
 IR Inten    --     18.7586                36.4597                29.7013

                      4                      5                      6
                     A'                     A"                     A'
 Frequencies --    128.8923               248.8204               352.8463
 Red. masses --      3.1719                 1.0690                 1.0708
 Frc consts  --      0.0310                 0.0390                 0.0785
 IR Inten    --      7.3970                34.3549                56.7097

                      7                      8                      9
                     A'                     A'                     A'
 Frequencies --   1065.5970              1068.7799              1664.5289
 Red. masses --      1.1793                 1.1698                 1.0660
 Frc consts  --      0.7890                 0.7873                 1.7402
 IR Inten    --    107.6639               158.5066                 8.7920

                     10                     11                     12
                     A"                     A'                     A"
 Frequencies --   1668.7017              1671.9203              1696.4397
 Red. masses --      1.0665                 1.0627                 1.0649
 Frc consts  --      1.7497                 1.7503                 1.8057
 IR Inten    --     18.5162                19.3125                 5.2390

                     13                     14                     15
                     A'                     A'                     A'
 Frequencies --   3464.3911              3498.8936              3606.1698
 Red. masses --      1.0314                 1.0266                 1.0853
 Frc consts  --      7.2932                 7.4049                 8.3156
 IR Inten    --     77.3200                 2.9360                75.3358

                     16                     17                     18
                     A'                     A"                     A"
 Frequencies --   3643.5462              3644.9423              3647.8853
 Red. masses --      1.0892                 1.0892                 1.0888
 Frc consts  --      8.5196                 8.5259                 8.5366
 IR Inten    --     12.1930                11.1183                 4.4461

 - Thermochemistry -
 -------------------
 Temperature   298.150 Kelvin.  Pressure   1.00000 Atm.
 Atom     1 has atomic number  7 and mass  14.00307

 Molecular mass:    34.05310 amu.
 Principal axes and moments of inertia in atomic units:
                           1         2         3
     Eigenvalues --    15.91168 354.85737 357.91422
           X            0.02348   0.00000   0.99972
           Y            0.99972   0.00000  -0.02348
           Z            0.00000   1.00000  -0.00000
 This molecule is an asymmetric top.
 Rotational symmetry number  1.
 Rotational temperatures (Kelvin)      5.44342     0.24408     0.24200
 Rotational constants (GHZ):         113.42245     5.08582     5.04238
    1 imaginary frequencies ignored.
 Zero-point vibrational energy     187116.9 (Joules/Mol)
                                   44.72200 (Kcal/Mol)
 Warning -- explicit consideration of   5 degrees of freedom as
           vibrations may cause significant error
 Vibrational temperatures:    137.06   166.72   185.45   358.00   507.67
          (Kelvin)           1533.16  1537.74  2394.89  2400.89  2405.52
                             2440.80  4984.49  5034.13  5188.47  5242.25
                             5244.26  5248.49

 Zero-point correction=                           0.071269 (Hartree/Particle)
 Thermal correction to Energy=                    0.077143
 Thermal correction to Enthalpy=                  0.078087
 Thermal correction to Gibbs Free Energy=         0.044128
 Sum of electronic and zero-point Energies=           -112.854736
 Sum of electronic and thermal Energies=              -112.848862
 Sum of electronic and thermal Enthalpies=            -112.847918
 Sum of electronic and thermal Free Energies=         -112.881877

                     E (Thermal)             CV                S
                      KCal/Mol        Cal/Mol-Kelvin    Cal/Mol-Kelvin
 Total                   48.408             15.888             71.473
 Electronic               0.000              0.000              0.000
 Translational            0.889              2.981             36.507
 Rotational               0.889              2.981             22.229
 Vibrational             46.631              9.926             12.737
 Vibration     1          0.603              1.953              3.549
 Vibration     2          0.608              1.936              3.168
 Vibration     3          0.611              1.924              2.963
 Vibration     4          0.662              1.765              1.739
 Vibration     5          0.729              1.569              1.153

 Optimization completed.
    -- Stationary point found.
 Normal termination of Gaussian 16 at Mon Apr  3 16:11:57 2023.
