 Gaussian 16, Revision C.01,

 ----------------------------------------------------------------------
 # mp2/aug-cc-pVTZ Pop=ChelpG opt=(z-matrix,MaxCycles=10000,CalcAll) fr
 eq
 ----------------------------------------------------------------------

 ------------------------------------
 Title: Rab = 3.7147 Aahb = 12.500000
 ------------------------------------
 Symbolic Z-matrix:
 Charge =  0 Multiplicity = 1

 SCF Done:  E(RHF) =  -112.442838071     A.U. after   10 cycles
 E2 =    -0.4817197638D+00 EUMP2 =    -0.11292455783475D+03
 E2 =    -0.4817197638D+00 EUMP2 =    -0.11292455783475D+03
 SCF Done:  E(RHF) =  -112.443023139     A.U. after   12 cycles
 E2 =    -0.4818294899D+00 EUMP2 =    -0.11292485262884D+03
 E2 =    -0.4818294899D+00 EUMP2 =    -0.11292485262884D+03
 SCF Done:  E(RHF) =  -112.443336322     A.U. after   11 cycles
 E2 =    -0.4817728317D+00 EUMP2 =    -0.11292510915377D+03
 E2 =    -0.4817728317D+00 EUMP2 =    -0.11292510915377D+03
 SCF Done:  E(RHF) =  -112.443333084     A.U. after    7 cycles
 E2 =    -0.4817768222D+00 EUMP2 =    -0.11292510990629D+03
 E2 =    -0.4817768222D+00 EUMP2 =    -0.11292510990629D+03
 Optimization completed.
    -- Stationary point found.
 ******    2 imaginary frequencies (negative Signs) ******
    2 imaginary frequencies ignored.
 Normal termination of Gaussian 16 at Thu May 23 13:22:30 2024.

 ----------------------------------------------------------------------
 #N Geom=AllCheck Guess=TCheck SCRF=Check GenChk RMP2(FC)/Aug-CC-pVTZ F
 req
 ----------------------------------------------------------------------

 Structure from the checkpoint file:  "/scr/Gau-58595.chk"
 ------------------------------------
 Title: Rab = 3.7147 Aahb = 12.500000
 ------------------------------------
 Charge =  0 Multiplicity = 1

 SCF Done:  E(RHF) =  -112.443333084     A.U. after    1 cycles
 E2 =    -0.4817768245D+00 EUMP2 =    -0.11292510990855D+03
 E2 =    -0.4817768245D+00 EUMP2 =    -0.11292510990855D+03
 Optimization completed.
 Normal termination of Gaussian 16 at Thu May 23 13:26:50 2024.

 ----------------------------------------------------------------------
 # mp2/aug-cc-pVTZ Pop=ChelpG opt=(z-matrix,MaxCycles=10000,CalcAll) fr
 eq
 ----------------------------------------------------------------------

 ------------------------------------
 Title: Rab = 3.8147 Aahb = 12.500000
 ------------------------------------
 Symbolic Z-matrix:
 Charge =  0 Multiplicity = 1

 SCF Done:  E(RHF) =  -112.442792072     A.U. after   10 cycles
 E2 =    -0.4815359233D+00 EUMP2 =    -0.11292432799481D+03
 E2 =    -0.4815359233D+00 EUMP2 =    -0.11292432799481D+03
 SCF Done:  E(RHF) =  -112.442887148     A.U. after   12 cycles
 E2 =    -0.4816294445D+00 EUMP2 =    -0.11292451659259D+03
 E2 =    -0.4816294445D+00 EUMP2 =    -0.11292451659259D+03
 SCF Done:  E(RHF) =  -112.443054754     A.U. after    9 cycles
 E2 =    -0.4815656331D+00 EUMP2 =    -0.11292462038705D+03
 E2 =    -0.4815656331D+00 EUMP2 =    -0.11292462038705D+03
 SCF Done:  E(RHF) =  -112.443197158     A.U. after   10 cycles
 E2 =    -0.4815748227D+00 EUMP2 =    -0.11292477198040D+03
 E2 =    -0.4815748227D+00 EUMP2 =    -0.11292477198040D+03
 SCF Done:  E(RHF) =  -112.443195621     A.U. after    7 cycles
 E2 =    -0.4815766126D+00 EUMP2 =    -0.11292477223335D+03
 E2 =    -0.4815766126D+00 EUMP2 =    -0.11292477223335D+03
 Normal termination of Gaussian 16 at Thu May 23 13:48:11 2024.

 ----------------------------------------------------------------------
 #N Geom=AllCheck Guess=TCheck SCRF=Check GenChk RMP2(FC)/Aug-CC-pVTZ F
 req
 ----------------------------------------------------------------------

 Structure from the checkpoint file:  "/scr/Gau-69208.chk"
 ------------------------------------
 Title: Rab = 3.8147 Aahb = 12.500000
 ------------------------------------
 Charge =  0 Multiplicity = 1

 Normal termination of Gaussian 16 at Thu May 23 13:52:27 2024.

 ----------------------------------------------------------------------
 # mp2/aug-cc-pVTZ Pop=ChelpG opt=(z-matrix,MaxCycles=10000,CalcAll) fr
 eq
 ----------------------------------------------------------------------

 ------------------------------------
 Title: Rab = 3.9147 Aahb = 12.500000
 ------------------------------------
 Symbolic Z-matrix:
 Charge =  0 Multiplicity = 1

 ----------------------------------------------------------------------
 #N Geom=AllCheck Guess=TCheck SCRF=Check GenChk RMP2(FC)/Aug-CC-pVTZ F
 req
 ----------------------------------------------------------------------

 Structure from the checkpoint file:  "/scr/Gau-80857.chk"
 ------------------------------------
 Title: Rab = 3.9147 Aahb = 12.500000
 ------------------------------------
 Charge =  0 Multiplicity = 1

 Normal termination of Gaussian 16 at Thu May 23 14:38:22 2024.
    -- Stationary point found.
 Normal termination of Gaussian 16 at Thu May 23 14:42:28 2024.
 Gaussian 16:  EM64L-G16RevC.01  3-Jul-2019
 SCF Done:  E(RHF) =  -112.442209016     A.U. after   12 cycles
 E2 =    -0.4812095919D+00 EUMP2 =    -0.11292341860749D+03
 E2 =    -0.4812095919D+00 EUMP2 =    -0.11292341860749D+03
 SCF Done:  E(RHF) =  -112.441768291     A.U. after    9 cycles
 E2 =    -0.4814568610D+00 EUMP2 =    -0.11292322515227D+03
 E2 =    -0.4814568610D+00 EUMP2 =    -0.11292322515227D+03
 SCF Done:  E(RHF) =  -112.442208942     A.U. after   12 cycles
 E2 =    -0.4812096644D+00 EUMP2 =    -0.11292341860681D+03
 E2 =    -0.4812096644D+00 EUMP2 =    -0.11292341860681D+03
 SCF Done:  E(RHF) =  -112.441771233     A.U. after    9 cycles
 E2 =    -0.4814549107D+00 EUMP2 =    -0.11292322614349D+03
 E2 =    -0.4814549107D+00 EUMP2 =    -0.11292322614349D+03
 SCF Done:  E(RHF) =  -112.442209028     A.U. after   12 cycles
 E2 =    -0.4812095786D+00 EUMP2 =    -0.11292341860665D+03
 E2 =    -0.4812095786D+00 EUMP2 =    -0.11292341860665D+03
 SCF Done:  E(RHF) =  -112.441767654     A.U. after    9 cycles
 E2 =    -0.4814572615D+00 EUMP2 =    -0.11292322491587D+03
 E2 =    -0.4814572615D+00 EUMP2 =    -0.11292322491587D+03
 SCF Done:  E(RHF) =  -112.442209004     A.U. after   12 cycles
 E2 =    -0.4812096013D+00 EUMP2 =    -0.11292341860577D+03
 E2 =    -0.4812096013D+00 EUMP2 =    -0.11292341860577D+03
 SCF Done:  E(RHF) =  -112.441768513     A.U. after    9 cycles
 E2 =    -0.4814566783D+00 EUMP2 =    -0.11292322519153D+03
 E2 =    -0.4814566783D+00 EUMP2 =    -0.11292322519153D+03
 SCF Done:  E(RHF) =  -112.442208978     A.U. after   12 cycles
 E2 =    -0.4812096285D+00 EUMP2 =    -0.11292341860626D+03
 E2 =    -0.4812096285D+00 EUMP2 =    -0.11292341860626D+03
 SCF Done:  E(RHF) =  -112.441769689     A.U. after    9 cycles
 E2 =    -0.4814559171D+00 EUMP2 =    -0.11292322560611D+03
 E2 =    -0.4814559171D+00 EUMP2 =    -0.11292322560611D+03
 Optimization stopped.
                       ! Non-Optimized Parameters !

                         Standard orientation:
 ---------------------------------------------------------------------
 Center     Atomic      Atomic             Coordinates (Angstroms)
 Number     Number       Type             X           Y           Z
 ---------------------------------------------------------------------
      1          7           0        0.057509    2.119132    0.000000
      2          1           0       -0.163075    1.124140    0.000000
      3          7           0        0.057509   -1.995568   -0.000000
      4          1           0       -0.901014   -2.320924   -0.000000
      5          1           0        0.516243   -2.380816    0.815073
      6          1           0        0.516243   -2.380816   -0.815073
      7          1           0       -0.386764    2.546733   -0.811601
      8          1           0       -0.386764    2.546733    0.811601
 ---------------------------------------------------------------------

 The electronic state is 1-A'.
 Alpha  occ. eigenvalues --  -15.54621 -15.52869  -1.14623  -1.12288  -0.63621
 Alpha  occ. eigenvalues --   -0.63477  -0.61509  -0.60884  -0.43284  -0.41256
 Alpha virt. eigenvalues --    0.02621   0.04163   0.04462   0.04805   0.06076
 Alpha virt. eigenvalues --    0.07418   0.12766   0.14219   0.15284   0.15557
 Alpha virt. eigenvalues --    0.16170   0.16648   0.17499   0.19669   0.21704

 Mulliken charges:
               1
     1  N   -0.639241
     2  H    0.264520
     3  N   -0.560483
     4  H    0.183537
     5  H    0.189514
     6  H    0.189514
     7  H    0.186319
     8  H    0.186319
 Sum of Mulliken charges =  -0.00000

 Dipole moment (field-independent basis, Debye):
    X=             -1.5806    Y=             -1.9977    Z=             -0.0000  Tot=              2.5474
 Quadrupole moment (field-independent basis, Debye-Ang):
   XX=            -15.2685   YY=            -10.1698   ZZ=            -12.4931
   XY=             -3.9037   XZ=             -0.0000   YZ=              0.0000

  Exact polarizability:      31.350       0.000      26.861      -0.095       0.000      28.558
 Approx polarizability:      21.621      -0.168      21.598       0.000       0.000      21.817

 ESP charges:
               1
     1  N   -0.918193
     2  H    0.270233
     3  N   -0.741394
     4  H    0.248912
     5  H    0.262692
     6  H    0.262692
     7  H    0.307530
     8  H    0.307530
 Sum of ESP charges =   0.00000

 ******    1 imaginary frequencies (negative Signs) ******

                      1                      2                      3
                     A'                     A"                     A'
 Frequencies --    -43.7118                59.7771               110.5553
 Red. masses --      4.7699                 2.1915                 2.1785
 Frc consts  --      0.0054                 0.0046                 0.0157
 IR Inten    --      0.6813                15.6296                22.2546

                      4                      5                      6
                     A"                     A"                     A'
 Frequencies --    157.5330               246.4955               323.8050
 Red. masses --      2.0438                 1.6527                 1.5062
 Frc consts  --      0.0299                 0.0592                 0.0930
 IR Inten    --     24.5504                 1.0202                47.3387

                      7                      8                      9
                     A'                     A'                     A"
 Frequencies --    765.8396               882.5714              1210.1560
 Red. masses --      2.6029                 1.7543                 2.1893
 Frc consts  --      0.8995                 0.8051                 1.8890
 IR Inten    --     89.1266                95.0976                 8.8180

                     10                     11                     12
                     A'                     A'                     A"
 Frequencies --   1212.3889              1276.8865              1508.6629
 Red. masses --      2.1878                 1.8082                 1.2213
 Frc consts  --      1.8947                 1.7370                 1.6378
 IR Inten    --      8.8499                 5.0622                15.2823

                     13                     14                     15
                     A'                     A'                     A"
 Frequencies --   2500.6695              2503.6514              2620.9251
 Red. masses --      2.0792                 2.1180                 2.3136
 Frc consts  --      7.6607                 7.8220                 9.3638
 IR Inten    --      0.2718                 1.3659                 4.7243

                     16                     17                     18
                     A'                     A"                     A'
 Frequencies --   2689.8884              2692.0377              3521.5787
 Red. masses --      2.3223                 2.3211                 1.0778
 Frc consts  --      9.8999                 9.9106                 7.8754
 IR Inten    --      8.6006                 8.8662                35.4122

 - Thermochemistry -
 -------------------
 Temperature   298.150 Kelvin.  Pressure   1.00000 Atm.
 Atom     1 has atomic number  7 and mass  14.00307

 Molecular mass:    39.08448 amu.
 Principal axes and moments of inertia in atomic units:
                           1         2         3
     Eigenvalues --    30.81676 653.95865 661.20570
           X           -0.02713   0.00000   0.99963
           Y            0.99963  -0.00000   0.02713
           Z            0.00000   1.00000  -0.00000
 This molecule is an asymmetric top.
 Rotational symmetry number  1.
 Rotational temperatures (Kelvin)      2.81061     0.13245     0.13099
 Rotational constants (GHZ):          58.56363     2.75972     2.72947
    1 imaginary frequencies ignored.
 Zero-point vibrational energy     145247.1 (Joules/Mol)
                                   34.71489 (Kcal/Mol)
 Warning -- explicit consideration of   5 degrees of freedom as
           vibrations may cause significant error
 Vibrational temperatures:     86.01   159.06   226.65   354.65   465.88
          (Kelvin)           1101.87  1269.82  1741.14  1744.36  1837.15
                             2170.63  3597.91  3602.20  3770.93  3870.15
                             3873.24  5066.77

 Zero-point correction=                           0.055322 (Hartree/Particle)
 Thermal correction to Energy=                    0.061392
 Thermal correction to Enthalpy=                  0.062336
 Thermal correction to Gibbs Free Energy=         0.026760
 Sum of electronic and zero-point Energies=           -112.867904
 Sum of electronic and thermal Energies=              -112.861833
 Sum of electronic and thermal Enthalpies=            -112.860889
 Sum of electronic and thermal Free Energies=         -112.896466

                     E (Thermal)             CV                S
                      KCal/Mol        Cal/Mol-Kelvin    Cal/Mol-Kelvin
 Total                   38.524             17.033             74.877
 Electronic               0.000              0.000              0.000
 Translational            0.889              2.981             36.918
 Rotational               0.889              2.981             24.103
 Vibrational             36.747             11.071             13.857
 Vibration     1          0.597              1.973              4.465
 Vibration     2          0.606              1.941              3.259
 Vibration     3          0.621              1.894              2.579
 Vibration     4          0.661              1.769              1.756
 Vibration     5          0.708              1.628              1.291

 Error termination request processed by link 9999.
 Error termination via Lnk1e in /sw/contrib/chem-src/g16/c01/g16/l9999.exe at Thu May 23 22:17:16 2024.
