 Gaussian 16, Revision A.03,

 ---------------------------------------------------------------------
 # mp2/aug-cc-pVTZ Pop=ChelpG opt=(z-matrix,MaxCycles=10000,MaxStep=1)
 ---------------------------------------------------------------------

 ---------------------------------
 Title: Rab = 2.8147 Optimizations
 ---------------------------------
 Symbolic Z-matrix:
 Charge =  0 Multiplicity = 1

 SCF Done:  E(RHF) =  -112.434296072     A.U. after   10 cycles
 E2 =    -0.4865335826D+00 EUMP2 =    -0.11292082965487D+03
 SCF Done:  E(RHF) =  -112.434356817     A.U. after    8 cycles
 E2 =    -0.4865155850D+00 EUMP2 =    -0.11292087240239D+03
 SCF Done:  E(RHF) =  -112.434453043     A.U. after    8 cycles
 E2 =    -0.4864548416D+00 EUMP2 =    -0.11292090788433D+03
 SCF Done:  E(RHF) =  -112.434468044     A.U. after    7 cycles
 E2 =    -0.4864428426D+00 EUMP2 =    -0.11292091088674D+03
 SCF Done:  E(RHF) =  -112.434482336     A.U. after    7 cycles
 E2 =    -0.4864300780D+00 EUMP2 =    -0.11292091241411D+03
 SCF Done:  E(RHF) =  -112.434501156     A.U. after    7 cycles
 E2 =    -0.4864141591D+00 EUMP2 =    -0.11292091531502D+03
 SCF Done:  E(RHF) =  -112.434508219     A.U. after    8 cycles
 E2 =    -0.4864107219D+00 EUMP2 =    -0.11292091894138D+03
 SCF Done:  E(RHF) =  -112.434496399     A.U. after    8 cycles
 E2 =    -0.4864242639D+00 EUMP2 =    -0.11292092066267D+03
 SCF Done:  E(RHF) =  -112.434484523     A.U. after    7 cycles
 E2 =    -0.4864364928D+00 EUMP2 =    -0.11292092101544D+03
 Optimization completed.
    -- Stationary point found.
 Normal termination of Gaussian 16 at Sat Mar  9 10:51:17 2024.

 ---------------------------------------------------------------------
 # mp2/aug-cc-pVTZ Pop=ChelpG opt=(z-matrix,MaxCycles=10000,MaxStep=1)
 ---------------------------------------------------------------------

 ---------------------------------
 Title: Rab = 2.9147 Optimizations
 ---------------------------------
 Symbolic Z-matrix:
 Charge =  0 Multiplicity = 1

 SCF Done:  E(RHF) =  -112.437633476     A.U. after   10 cycles
 E2 =    -0.4855713200D+00 EUMP2 =    -0.11292320479580D+03
 E2 =    -0.4855779888D+00 EUMP2 =    -0.11292322588671D+03
 E2 =    -0.4855385914D+00 EUMP2 =    -0.11292324197268D+03
 E2 =    -0.4855272472D+00 EUMP2 =    -0.11292324299869D+03
 E2 =    -0.4855159416D+00 EUMP2 =    -0.11292324388292D+03
 E2 =    -0.4855058657D+00 EUMP2 =    -0.11292324548571D+03
 E2 =    -0.4855059204D+00 EUMP2 =    -0.11292324757137D+03
 E2 =    -0.4855171059D+00 EUMP2 =    -0.11292324823649D+03
 E2 =    -0.4855250681D+00 EUMP2 =    -0.11292324834660D+03
 E2 =    -0.4855343471D+00 EUMP2 =    -0.11292324832579D+03
 E2 =    -0.4855291863D+00 EUMP2 =    -0.11292324837774D+03
 Optimization completed.
 Normal termination of Gaussian 16 at Sat Mar  9 10:55:56 2024.

 ---------------------------------------------------------------------
 # mp2/aug-cc-pVTZ Pop=ChelpG opt=(z-matrix,MaxCycles=10000,MaxStep=1)
 ---------------------------------------------------------------------

 ---------------------------------
 Title: Rab = 3.0147 Optimizations
 ---------------------------------
 Symbolic Z-matrix:
 Charge =  0 Multiplicity = 1

 Normal termination of Gaussian 16 at Sat Mar  9 10:57:12 2024.

 ---------------------------------------------------------------------
 # mp2/aug-cc-pVTZ Pop=ChelpG opt=(z-matrix,MaxCycles=10000,MaxStep=1)
 ---------------------------------------------------------------------

 ---------------------------------
 Title: Rab = 3.1147 Optimizations
 ---------------------------------
 Symbolic Z-matrix:
 Charge =  0 Multiplicity = 1

 Normal termination of Gaussian 16 at Sat Mar  9 10:58:28 2024.

 ---------------------------------------------------------------------
 # mp2/aug-cc-pVTZ Pop=ChelpG opt=(z-matrix,MaxCycles=10000,MaxStep=1)
 ---------------------------------------------------------------------

 ---------------------------------
 Title: Rab = 3.2147 Optimizations
 ---------------------------------
 Symbolic Z-matrix:
 Charge =  0 Multiplicity = 1

 ---------------------------------------------------------------------
 # mp2/aug-cc-pVTZ Pop=ChelpG opt=(z-matrix,MaxCycles=10000,MaxStep=1)
 ---------------------------------------------------------------------

 ---------------------------------
 Title: Rab = 3.3147 Optimizations
 ---------------------------------
 Symbolic Z-matrix:
 Charge =  0 Multiplicity = 1

 E2 =    -0.4804342360D+00 EUMP2 =    -0.11292114992881D+03
 E2 =    -0.4805448012D+00 EUMP2 =    -0.11292110345595D+03
 E2 =    -0.4804245081D+00 EUMP2 =    -0.11292112963261D+03
 E2 =    -0.4804243292D+00 EUMP2 =    -0.11292113028240D+03
 E2 =    -0.4804330033D+00 EUMP2 =    -0.11292113066822D+03
 E2 =    -0.4805456809D+00 EUMP2 =    -0.11292108240322D+03
 E2 =    -0.4804251813D+00 EUMP2 =    -0.11292110859067D+03
 E2 =    -0.4804244632D+00 EUMP2 =    -0.11292110920965D+03
 E2 =    -0.4805463451D+00 EUMP2 =    -0.11292107196538D+03
 E2 =    -0.4804257184D+00 EUMP2 =    -0.11292109814738D+03
 SCF Done:  E(RHF) =  -112.440674030     A.U. after    6 cycles
 E2 =    -0.4804247194D+00 EUMP2 =    -0.11292109874961D+03
 Normal termination of Gaussian 16 at Sat Mar  9 11:35:24 2024.
 SCF Done:  E(RHF) =  -112.440519406     A.U. after   10 cycles
 E2 =    -0.4805467764D+00 EUMP2 =    -0.11292106618225D+03
 SCF Done:  E(RHF) =  -112.440666287     A.U. after    7 cycles
 E2 =    -0.4804260692D+00 EUMP2 =    -0.11292109235662D+03
 SCF Done:  E(RHF) =  -112.440668040     A.U. after    6 cycles
 E2 =    -0.4804249090D+00 EUMP2 =    -0.11292109294893D+03
 Normal termination of Gaussian 16 at Sat Mar  9 11:36:10 2024.
 SCF Done:  E(RHF) =  -112.440515659     A.U. after   10 cycles
 E2 =    -0.4805470608D+00 EUMP2 =    -0.11292106272027D+03
 SCF Done:  E(RHF) =  -112.440662587     A.U. after    7 cycles
 E2 =    -0.4804263006D+00 EUMP2 =    -0.11292108888784D+03
 SCF Done:  E(RHF) =  -112.440664433     A.U. after    6 cycles
 E2 =    -0.4804250412D+00 EUMP2 =    -0.11292108947391D+03
    -- Stationary point found.
 Normal termination of Gaussian 16 at Sat Mar  9 11:36:56 2024.
 Gaussian 16:  ES64L-G16RevA.03 25-Dec-2016
 SCF Done:  E(RHF) =  -112.440513268     A.U. after   10 cycles
 E2 =    -0.4805472539D+00 EUMP2 =    -0.11292106052186D+03
 SCF Done:  E(RHF) =  -112.440660226     A.U. after    7 cycles
 E2 =    -0.4804264575D+00 EUMP2 =    -0.11292108668396D+03
 SCF Done:  E(RHF) =  -112.440662132     A.U. after    6 cycles
 E2 =    -0.4804251336D+00 EUMP2 =    -0.11292108726589D+03
 Optimization completed.
    -- Stationary point found.

                         Standard orientation:
 ---------------------------------------------------------------------
 Center     Atomic      Atomic             Coordinates (Angstroms)
 Number     Number       Type             X           Y           Z
 ---------------------------------------------------------------------
      1          7           0       -0.045598   10.735228    0.000000
      2          1           0       -0.045598    9.723294    0.000000
      3          7           0       -0.045598  -10.579472   -0.000000
      4          1           0       -1.023714  -10.839835   -0.000000
      5          1           0        0.372173  -11.015576    0.812271
      6          1           0        0.372173  -11.015576   -0.812271
      7          1           0        0.481666   11.028699    0.812441
      8          1           0        0.481666   11.028699   -0.812441
 ---------------------------------------------------------------------

 The electronic state is 1-A'.
 Alpha  occ. eigenvalues --  -15.54192 -15.54121  -1.14262  -1.14198  -0.62892
 Alpha  occ. eigenvalues --   -0.62891  -0.62866  -0.62846  -0.42958  -0.42872
 Alpha virt. eigenvalues --    0.02940   0.02998   0.04853   0.04855   0.04907
 Alpha virt. eigenvalues --    0.04916   0.11770   0.11829   0.15229   0.15286
 Alpha virt. eigenvalues --    0.16218   0.16218   0.16273   0.16275   0.22132

 Mulliken charges:
               1
     1  N   -0.596608
     2  H    0.198935
     3  N   -0.596500
     4  H    0.198853
     5  H    0.198823
     6  H    0.198823
     7  H    0.198837
     8  H    0.198837
 Sum of Mulliken charges =  -0.00000

 Dipole moment (field-independent basis, Debye):
    X=              1.2901    Y=             -2.2038    Z=             -0.0000  Tot=              2.5536
 Quadrupole moment (field-independent basis, Debye-Ang):
   XX=            -14.9031   YY=              5.4995   ZZ=            -12.4438
   XY=             18.8517   XZ=             -0.0000   YZ=             -0.0000

 ESP charges:
               1
     1  N   -0.914747
     2  H    0.304607
     3  N   -0.913814
     4  H    0.304253
     5  H    0.304693
     6  H    0.304693
     7  H    0.305158
     8  H    0.305158
 Sum of ESP charges =   0.00000

 Normal termination of Gaussian 16 at Sat Mar  9 11:37:40 2024.
