 Gaussian 16, Revision A.03,
 Gaussian 16:  ES64L-G16RevA.03 25-Dec-2016

 ------------------------------------------------------------
 # mp2/aug-cc-pVTZ opt=(z-matrix,Tight,MaxCycles=100000) freq
 ------------------------------------------------------------

 ------------------
 Optmization Linear
 ------------------
 Symbolic Z-matrix:
 Charge =  0 Multiplicity = 1

 SCF Done:  E(RHF) =  -176.132192777     A.U. after   10 cycles
 E2 =    -0.5519480027D+00 EUMP2 =    -0.17668414077969D+03
 SCF Done:  E(RHF) =  -176.132194708     A.U. after    4 cycles
 E2 =    -0.5519460754D+00 EUMP2 =    -0.17668414078290D+03
 Optimization completed.
    -- Stationary point found.
 Normal termination of Gaussian 16 at Fri Mar 31 12:32:26 2023.

 ----------------------------------------------------------------------
 #N Geom=AllCheck Guess=TCheck SCRF=Check GenChk RMP2(FC)/Aug-CC-pVTZ F
 req
 ----------------------------------------------------------------------

 Structure from the checkpoint file:  "/gscratch/scrubbed/gds001/Gau-10591.chk"
 ------------------
 Optmization Linear
 ------------------
 Charge =  0 Multiplicity = 1

                         Standard orientation:
 ---------------------------------------------------------------------
 Center     Atomic      Atomic             Coordinates (Angstroms)
 Number     Number       Type             X           Y           Z
 ---------------------------------------------------------------------
      1          9           0        0.043091    1.407990    0.000000
      2          1           0        0.043091    0.468287    0.000000
      3          8           0        0.043091   -1.234841   -0.000000
      4          1           0       -0.387818   -1.630735    0.764160
      5          1           0       -0.387818   -1.630735   -0.764160
 ---------------------------------------------------------------------

 SCF Done:  E(RHF) =  -176.132194708     A.U. after    1 cycles
 E2 =    -0.5519460782D+00 EUMP2 =    -0.17668414078575D+03
 E2 =    -0.5519460782D+00 EUMP2 =    -0.17668414078575D+03

 The electronic state is 1-A'.
 Alpha  occ. eigenvalues --  -26.24652 -20.61546  -1.54971  -1.40194  -0.76438
 Alpha  occ. eigenvalues --   -0.73689  -0.62920  -0.60178  -0.60177  -0.55909
 Alpha virt. eigenvalues --    0.01759   0.04100   0.06686   0.11640   0.13891
 Alpha virt. eigenvalues --    0.16710   0.16778   0.19449   0.21879   0.22754
 Alpha virt. eigenvalues --    0.22811   0.25107   0.28150   0.28160   0.30293

 Mulliken charges:
               1
     1  F   -0.414756
     2  H    0.361995
     3  O   -0.386046
     4  H    0.219403
     5  H    0.219403
 Sum of Mulliken charges =   0.00000

 Dipole moment (field-independent basis, Debye):
    X=             -1.5035    Y=             -4.1496    Z=             -0.0000  Tot=              4.4136
 Quadrupole moment (field-independent basis, Debye-Ang):
   XX=            -12.3186   YY=            -11.8762   ZZ=             -9.7680
   XY=              2.6349   XZ=              0.0000   YZ=              0.0000

  Exact polarizability:  13.292   0.454  17.671  -0.000   0.000  13.941
 Approx polarizability:   9.993   0.541  11.748   0.000  -0.000  11.080

                      1                      2                      3
                     A'                     A"                     A'
 Frequencies --    226.7334               248.5851               270.6094
 Red. masses --      2.1885                 1.0587                 1.8282
 Frc consts  --      0.0663                 0.0385                 0.0789
 IR Inten    --     30.0366                 0.1738               160.6016

                      4                      5                      6
                     A'                     A"                     A'
 Frequencies --    723.4576               844.9710              1631.4670
 Red. masses --      1.0490                 1.0408                 1.0839
 Frc consts  --      0.3235                 0.4378                 1.6997
 IR Inten    --    157.5715               118.7878                73.3038

                      7                      8                      9
                     A'                     A'                     A"
 Frequencies --   3718.0474              3813.8989              3931.8008
 Red. masses --      1.0600                 1.0451                 1.0821
 Frc consts  --      8.6337                 8.9564                 9.8556
 IR Inten    --    963.0181                 9.1659               116.3113

 - Thermochemistry -
 -------------------
 Temperature   298.150 Kelvin.  Pressure   1.00000 Atm.
 Atom     1 has atomic number  9 and mass  18.99840

 Molecular mass:    38.01679 amu.
 Principal axes and moments of inertia in atomic units:
                           1         2         3
     Eigenvalues --     5.34679 241.14698 244.20662
           X            0.02261   0.00000   0.99974
           Y            0.99974   0.00000  -0.02261
           Z            0.00000   1.00000   0.00000
 This molecule is an asymmetric top.
 Rotational symmetry number  1.
 Rotational temperatures (Kelvin)     16.19924     0.35917     0.35467
 Rotational constants (GHZ):         337.53731     7.48399     7.39022
 Zero-point vibrational energy      92169.7 (Joules/Mol)
                                   22.02909 (Kcal/Mol)
 Warning -- explicit consideration of   3 degrees of freedom as
           vibrations may cause significant error
 Vibrational temperatures:    326.22   357.66   389.35  1040.89  1215.72
          (Kelvin)           2347.32  5349.44  5487.35  5656.98

 Zero-point correction=                           0.035106 (Hartree/Particle)
 Thermal correction to Energy=                    0.039578
 Thermal correction to Enthalpy=                  0.040522
 Thermal correction to Gibbs Free Energy=         0.010629
 Sum of electronic and zero-point Energies=           -176.649035
 Sum of electronic and thermal Energies=              -176.644563
 Sum of electronic and thermal Enthalpies=            -176.643619
 Sum of electronic and thermal Free Energies=         -176.673512

                     E (Thermal)             CV                S
                      KCal/Mol        Cal/Mol-Kelvin    Cal/Mol-Kelvin
 Total                   24.835             12.666             62.914
 Electronic               0.000              0.000              0.000
 Translational            0.889              2.981             36.835
 Rotational               0.889              2.981             20.382
 Vibrational             23.058              6.704              5.697
 Vibration     1          0.650              1.800              1.905
 Vibration     2          0.662              1.765              1.741
 Vibration     3          0.674              1.727              1.592

 Optimization completed.
    -- Stationary point found.
 Normal termination of Gaussian 16 at Fri Mar 31 12:33:54 2023.
