 Gaussian 16, Revision A.03,
 Gaussian 16:  ES64L-G16RevA.03 25-Dec-2016

 ---------------------------------------------------------
 # mp2/aug-cc-pVTZ opt=(z-matrix,Tight,MaxCycles=100) freq
 ---------------------------------------------------------

 ---------------
 Optimize Linear
 ---------------
 Symbolic Z-matrix:
 Charge =  0 Multiplicity = 1

 SCF Done:  E(RHF) =  -200.126955245     A.U. after   10 cycles
 E2 =    -0.5620947482D+00 EUMP2 =    -0.20068904999361D+03
 SCF Done:  E(RHF) =  -200.126950459     A.U. after    8 cycles
 E2 =    -0.5621191693D+00 EUMP2 =    -0.20068906962875D+03
 SCF Done:  E(RHF) =  -200.127024963     A.U. after    9 cycles
 E2 =    -0.5620828779D+00 EUMP2 =    -0.20068910784044D+03
 SCF Done:  E(RHF) =  -200.127151640     A.U. after    9 cycles
 E2 =    -0.5620076443D+00 EUMP2 =    -0.20068915928464D+03
 SCF Done:  E(RHF) =  -200.127249253     A.U. after    9 cycles
 E2 =    -0.5619280734D+00 EUMP2 =    -0.20068917732671D+03
 SCF Done:  E(RHF) =  -200.127253480     A.U. after    6 cycles
 E2 =    -0.5619238940D+00 EUMP2 =    -0.20068917737357D+03
 SCF Done:  E(RHF) =  -200.127256143     A.U. after    6 cycles
 E2 =    -0.5619212488D+00 EUMP2 =    -0.20068917739211D+03
 SCF Done:  E(RHF) =  -200.127258113     A.U. after    6 cycles
 E2 =    -0.5619192812D+00 EUMP2 =    -0.20068917739406D+03
 SCF Done:  E(RHF) =  -200.127257398     A.U. after    5 cycles
 E2 =    -0.5619199954D+00 EUMP2 =    -0.20068917739358D+03
 SCF Done:  E(RHF) =  -200.127257957     A.U. after    3 cycles
 E2 =    -0.5619194385D+00 EUMP2 =    -0.20068917739509D+03
 SCF Done:  E(RHF) =  -200.127257258     A.U. after    5 cycles
 E2 =    -0.5619201358D+00 EUMP2 =    -0.20068917739427D+03
 SCF Done:  E(RHF) =  -200.127257862     A.U. after    3 cycles
 E2 =    -0.5619195331D+00 EUMP2 =    -0.20068917739551D+03
 SCF Done:  E(RHF) =  -200.127257264     A.U. after    5 cycles
 E2 =    -0.5619201308D+00 EUMP2 =    -0.20068917739447D+03
 Optimization completed on the basis of negligible forces.
    -- Stationary point found.
 Normal termination of Gaussian 16 at Fri Apr  7 16:18:38 2023.

 ----------------------------------------------------------------------
 #N Geom=AllCheck Guess=TCheck SCRF=Check GenChk RMP2(FC)/Aug-CC-pVTZ F
 req
 ----------------------------------------------------------------------

 Structure from the checkpoint file:  "/gscratch/scrubbed/gds001/Gau-30304.chk"
 ---------------
 Optimize Linear
 ---------------
 Charge =  0 Multiplicity = 1

                         Standard orientation:
 ---------------------------------------------------------------------
 Center     Atomic      Atomic             Coordinates (Angstroms)
 Number     Number       Type             X           Y           Z
 ---------------------------------------------------------------------
      1          9           0        0.040607    1.443370    0.000000
      2          1           0        0.040607    0.515543    0.000000
      3          9           0        0.040607   -1.306351    0.000000
      4          1           0       -0.771530   -1.748713   -0.000000
 ---------------------------------------------------------------------

 SCF Done:  E(RHF) =  -200.127257264     A.U. after    1 cycles
 E2 =    -0.5619201294D+00 EUMP2 =    -0.20068917739302D+03
 E2 =    -0.5619201294D+00 EUMP2 =    -0.20068917739302D+03

 The electronic state is 1-A'.
 Alpha  occ. eigenvalues --  -26.34491 -26.27131  -1.64822  -1.57395  -0.81858
 Alpha  occ. eigenvalues --   -0.75036  -0.69648  -0.68767  -0.62435  -0.62418
 Alpha virt. eigenvalues --    0.01850   0.06284   0.12936   0.15855   0.16707
 Alpha virt. eigenvalues --    0.18200   0.21260   0.23619   0.25548   0.26026
 Alpha virt. eigenvalues --    0.27785   0.29370   0.34320   0.36259   0.40346

 Mulliken charges:
               1
     1  F   -0.415250
     2  H    0.430311
     3  F   -0.413205
     4  H    0.398144
 Sum of Mulliken charges =   0.00000

 Dipole moment (field-independent basis, Debye):
    X=             -1.7324    Y=             -3.3382    Z=             -0.0000  Tot=              3.7610
 Quadrupole moment (field-independent basis, Debye-Ang):
   XX=             -9.5129   YY=            -11.2648   ZZ=            -11.3744
   XY=              3.2816   XZ=             -0.0000   YZ=              0.0000

  Exact polarizability:  10.525   0.667  12.998   0.000  -0.000   9.587
 Approx polarizability:   8.076   0.585   8.912   0.000  -0.000   7.026

                      1                      2                      3
                     A'                     A'                     A"
 Frequencies --    158.5313               219.7954               466.4986
 Red. masses --      4.0733                 1.2714                 1.0358
 Frc consts  --      0.0603                 0.0362                 0.1328
 IR Inten    --      3.6402               111.1762               135.7697

                      4                      5                      6
                     A'                     A'                     A'
 Frequencies --    568.7670              3991.0272              4083.1471
 Red. masses --      1.0475                 1.0585                 1.0580
 Frc consts  --      0.1996                 9.9340                10.3927
 IR Inten    --    180.9845               502.3982               123.8215

 - Thermochemistry -
 -------------------
 Temperature   298.150 Kelvin.  Pressure   1.00000 Atm.
 Atom     1 has atomic number  9 and mass  18.99840

 Molecular mass:    40.01246 amu.
 Principal axes and moments of inertia in atomic units:
                           1         2         3
     Eigenvalues --     2.21219 269.02077 271.23296
           X            0.01953   0.99981   0.00000
           Y            0.99981  -0.01953   0.00000
           Z           -0.00000  -0.00000   1.00000
 This molecule is an asymmetric top.
 Rotational symmetry number  1.
 Rotational temperatures (Kelvin)     39.15296     0.32196     0.31933
 Rotational constants (GHZ):         815.81525     6.70856     6.65384
 Zero-point vibrational energy      56749.4 (Joules/Mol)
                                   13.56344 (Kcal/Mol)
 Warning -- explicit consideration of   4 degrees of freedom as
           vibrations may cause significant error
 Vibrational temperatures:    228.09   316.24   671.19   818.33  5742.20
          (Kelvin)           5874.74

 Zero-point correction=                           0.021615 (Hartree/Particle)
 Thermal correction to Energy=                    0.026034
 Thermal correction to Enthalpy=                  0.026979
 Thermal correction to Gibbs Free Energy=        -0.002711
 Sum of electronic and zero-point Energies=           -200.667563
 Sum of electronic and thermal Energies=              -200.663143
 Sum of electronic and thermal Enthalpies=            -200.662199
 Sum of electronic and thermal Free Energies=         -200.691889

                     E (Thermal)             CV                S
                      KCal/Mol        Cal/Mol-Kelvin    Cal/Mol-Kelvin
 Total                   16.337             12.089             62.488
 Electronic               0.000              0.000              0.000
 Translational            0.889              2.981             36.988
 Rotational               0.889              2.981             19.718
 Vibrational             14.559              6.127              5.782
 Vibration     1          0.621              1.893              2.567
 Vibration     2          0.647              1.811              1.961
 Vibration     3          0.824              1.324              0.747
 Vibration     4          0.925              1.099              0.507

 Optimization completed.
    -- Stationary point found.
 Normal termination of Gaussian 16 at Fri Apr  7 16:19:48 2023.
