 Gaussian 16, Revision A.03,

 -----------------------------------------
 # mp2/aug-cc-pVTZ Pop=ChelpG opt=z-matrix
 -----------------------------------------

 ---------------------------------
 Title: Rab = 2.2497 Optimizations
 ---------------------------------
 Symbolic Z-matrix:
 Charge =  0 Multiplicity = 1

 SCF Done:  E(RHF) =  -200.112219917     A.U. after   10 cycles
 E2 =    -0.5636555328D+00 EUMP2 =    -0.20067587544969D+03
 SCF Done:  E(RHF) =  -200.112664451     A.U. after    9 cycles
 E2 =    -0.5633210985D+00 EUMP2 =    -0.20067598554943D+03
 SCF Done:  E(RHF) =  -200.112692286     A.U. after    7 cycles
 E2 =    -0.5632957696D+00 EUMP2 =    -0.20067598805558D+03
 SCF Done:  E(RHF) =  -200.112677438     A.U. after    8 cycles
 E2 =    -0.5633155180D+00 EUMP2 =    -0.20067599295548D+03
 SCF Done:  E(RHF) =  -200.112642265     A.U. after    8 cycles
 E2 =    -0.5633519871D+00 EUMP2 =    -0.20067599425190D+03
 Optimization completed.
    -- Stationary point found.
 Normal termination of Gaussian 16 at Sat Mar  9 10:48:30 2024.

 -----------------------------------------
 # mp2/aug-cc-pVTZ Pop=ChelpG opt=z-matrix
 -----------------------------------------

 ---------------------------------
 Title: Rab = 2.3497 Optimizations
 ---------------------------------
 Symbolic Z-matrix:
 Charge =  0 Multiplicity = 1

 SCF Done:  E(RHF) =  -200.119161902     A.U. after   10 cycles
 E2 =    -0.5632388994D+00 EUMP2 =    -0.20068240080183D+03
 SCF Done:  E(RHF) =  -200.119321860     A.U. after    8 cycles
 E2 =    -0.5631086820D+00 EUMP2 =    -0.20068243054232D+03
 SCF Done:  E(RHF) =  -200.119336796     A.U. after    7 cycles
 E2 =    -0.5630960697D+00 EUMP2 =    -0.20068243286614D+03
 SCF Done:  E(RHF) =  -200.119316750     A.U. after    8 cycles
 E2 =    -0.5631212612D+00 EUMP2 =    -0.20068243801127D+03
 SCF Done:  E(RHF) =  -200.119284384     A.U. after    8 cycles
 E2 =    -0.5631548811D+00 EUMP2 =    -0.20068243926497D+03
 Optimization completed.
 Normal termination of Gaussian 16 at Sat Mar  9 10:49:11 2024.

 -----------------------------------------
 # mp2/aug-cc-pVTZ Pop=ChelpG opt=z-matrix
 -----------------------------------------

 ---------------------------------
 Title: Rab = 2.4497 Optimizations
 ---------------------------------
 Symbolic Z-matrix:
 Charge =  0 Multiplicity = 1

 E2 =    -0.5628424486D+00 EUMP2 =    -0.20068611891933D+03
 E2 =    -0.5628181877D+00 EUMP2 =    -0.20068612626052D+03
 E2 =    -0.5628175963D+00 EUMP2 =    -0.20068612803507D+03
 E2 =    -0.5628411331D+00 EUMP2 =    -0.20068613153904D+03
 E2 =    -0.5628671560D+00 EUMP2 =    -0.20068613260442D+03
 Normal termination of Gaussian 16 at Sat Mar  9 10:49:50 2024.

 -----------------------------------------
 # mp2/aug-cc-pVTZ Pop=ChelpG opt=z-matrix
 -----------------------------------------

 ---------------------------------
 Title: Rab = 2.5497 Optimizations
 ---------------------------------
 Symbolic Z-matrix:
 Charge =  0 Multiplicity = 1

 E2 =    -0.5624884602D+00 EUMP2 =    -0.20068807781313D+03
 E2 =    -0.5625064367D+00 EUMP2 =    -0.20068807952019D+03
 E2 =    -0.5625152290D+00 EUMP2 =    -0.20068808064694D+03
 E2 =    -0.5625330183D+00 EUMP2 =    -0.20068808250410D+03
 E2 =    -0.5625455867D+00 EUMP2 =    -0.20068808285927D+03
 Normal termination of Gaussian 16 at Sat Mar  9 10:50:29 2024.

 -----------------------------------------
 # mp2/aug-cc-pVTZ Pop=ChelpG opt=z-matrix
 -----------------------------------------

 ---------------------------------
 Title: Rab = 2.6497 Optimizations
 ---------------------------------
 Symbolic Z-matrix:
 Charge =  0 Multiplicity = 1

 -----------------------------------------
 # mp2/aug-cc-pVTZ Pop=ChelpG opt=z-matrix
 -----------------------------------------

 ---------------------------------
 Title: Rab = 2.7497 Optimizations
 ---------------------------------
 Symbolic Z-matrix:
 Charge =  0 Multiplicity = 1

 E2 =    -0.5600678151D+00 EUMP2 =    -0.20068226762044D+03
 E2 =    -0.5600673316D+00 EUMP2 =    -0.20068226777612D+03
 E2 =    -0.5605717891D+00 EUMP2 =    -0.20068195397413D+03
 E2 =    -0.5601224231D+00 EUMP2 =    -0.20068200018112D+03
 E2 =    -0.5605789836D+00 EUMP2 =    -0.20068188026075D+03
 E2 =    -0.5601257412D+00 EUMP2 =    -0.20068192704854D+03
 E2 =    -0.5605837230D+00 EUMP2 =    -0.20068183605892D+03
 E2 =    -0.5601281788D+00 EUMP2 =    -0.20068188320397D+03
 E2 =    -0.5605869622D+00 EUMP2 =    -0.20068180798027D+03
 E2 =    -0.5601299678D+00 EUMP2 =    -0.20068185535708D+03
 SCF Done:  E(RHF) =  -200.121185503     A.U. after   10 cycles
 E2 =    -0.5605908376D+00 EUMP2 =    -0.20068177634021D+03
 SCF Done:  E(RHF) =  -200.121691756     A.U. after    7 cycles
 E2 =    -0.5601322269D+00 EUMP2 =    -0.20068182398324D+03
 SCF Done:  E(RHF) =  -200.121167435     A.U. after   10 cycles
 E2 =    -0.5605928888D+00 EUMP2 =    -0.20068176032381D+03
 SCF Done:  E(RHF) =  -200.121674633     A.U. after    7 cycles
 E2 =    -0.5601334712D+00 EUMP2 =    -0.20068180810367D+03
 Normal termination of Gaussian 16 at Sat Mar  9 11:11:38 2024.
 SCF Done:  E(RHF) =  -200.121157295     A.U. after   10 cycles
 E2 =    -0.5605940665D+00 EUMP2 =    -0.20068175136162D+03
 SCF Done:  E(RHF) =  -200.121665016     A.U. after    7 cycles
 E2 =    -0.5601342023D+00 EUMP2 =    -0.20068179921856D+03
 Normal termination of Gaussian 16 at Sat Mar  9 11:11:49 2024.
 SCF Done:  E(RHF) =  -200.121151173     A.U. after   10 cycles
 E2 =    -0.5605947888D+00 EUMP2 =    -0.20068174596155D+03
 SCF Done:  E(RHF) =  -200.121659207     A.U. after    7 cycles
 E2 =    -0.5601346581D+00 EUMP2 =    -0.20068179386503D+03
    -- Stationary point found.
 Normal termination of Gaussian 16 at Sat Mar  9 11:12:00 2024.
 Gaussian 16:  ES64L-G16RevA.03 25-Dec-2016
 SCF Done:  E(RHF) =  -200.121147261     A.U. after   10 cycles
 E2 =    -0.5605952558D+00 EUMP2 =    -0.20068174251642D+03
 SCF Done:  E(RHF) =  -200.121655493     A.U. after    7 cycles
 E2 =    -0.5601349563D+00 EUMP2 =    -0.20068179044958D+03
 Optimization completed.
    -- Stationary point found.

                         Standard orientation:
 ---------------------------------------------------------------------
 Center     Atomic      Atomic             Coordinates (Angstroms)
 Number     Number       Type             X           Y           Z
 ---------------------------------------------------------------------
      1          9           0        0.040481   10.443009    0.000000
      2          1           0        0.040481    9.520906    0.000000
      3          9           0        0.040481  -10.306691    0.000000
      4          1           0       -0.769138  -10.747774    0.000000
 ---------------------------------------------------------------------

 The electronic state is 1-A'.
 Alpha  occ. eigenvalues --  -26.30005 -26.29928  -1.60158  -1.60077  -0.76725
 Alpha  occ. eigenvalues --   -0.76643  -0.65056  -0.65056  -0.64978  -0.64978
 Alpha virt. eigenvalues --    0.02994   0.03070   0.13816   0.13893   0.20082
 Alpha virt. eigenvalues --    0.20083   0.20159   0.20159   0.20721   0.20797
 Alpha virt. eigenvalues --    0.28483   0.28483   0.28559   0.28559   0.31016

 Mulliken charges:
               1
     1  F   -0.378170
     2  H    0.378170
     3  F   -0.378093
     4  H    0.378093
 Sum of Mulliken charges =  -0.00000

 Dipole moment (field-independent basis, Debye):
    X=             -1.6992    Y=             -2.8616    Z=             -0.0000  Tot=              3.3281
 Quadrupole moment (field-independent basis, Debye-Ang):
   XX=             -9.5868   YY=            -29.6238   ZZ=            -11.4043
   XY=             18.4650   XZ=              0.0000   YZ=             -0.0000

 ESP charges:
               1
     1  F   -0.441834
     2  H    0.441829
     3  F   -0.441802
     4  H    0.441807
 Sum of ESP charges =   0.00000

 Normal termination of Gaussian 16 at Sat Mar  9 11:12:12 2024.
