 Gaussian 16, Revision A.03,
 Gaussian 16:  ES64L-G16RevA.03 25-Dec-2016

 ------------------------------------------------------------
 # mp2/aug-cc-pVTZ opt=(z-matrix,Tight,MaxCycles=100000) freq
 ------------------------------------------------------------

 -------------------
 Optimization Linear
 -------------------
 Symbolic Z-matrix:
 Charge =  0 Multiplicity = 1

 SCF Done:  E(RHF) =  -152.114989895     A.U. after   10 cycles
 E2 =    -0.5455281968D+00 EUMP2 =    -0.15266051809154D+03
 SCF Done:  E(RHF) =  -152.125986949     A.U. after   10 cycles
 E2 =    -0.5400635205D+00 EUMP2 =    -0.15266605046931D+03
 SCF Done:  E(RHF) =  -152.126073369     A.U. after    9 cycles
 E2 =    -0.5400448103D+00 EUMP2 =    -0.15266611817932D+03
 SCF Done:  E(RHF) =  -152.126035202     A.U. after    8 cycles
 E2 =    -0.5400962974D+00 EUMP2 =    -0.15266613149952D+03
 SCF Done:  E(RHF) =  -152.126010953     A.U. after    7 cycles
 E2 =    -0.5401236697D+00 EUMP2 =    -0.15266613462230D+03
 SCF Done:  E(RHF) =  -152.125985678     A.U. after    8 cycles
 E2 =    -0.5401531087D+00 EUMP2 =    -0.15266613878629D+03
 SCF Done:  E(RHF) =  -152.125994947     A.U. after    6 cycles
 E2 =    -0.5401461662D+00 EUMP2 =    -0.15266614111289D+03
 SCF Done:  E(RHF) =  -152.123650704     A.U. after   10 cycles
 E2 =    -0.5411818825D+00 EUMP2 =    -0.15266483258667D+03
 SCF Done:  E(RHF) =  -152.125357930     A.U. after    9 cycles
 E2 =    -0.5405311963D+00 EUMP2 =    -0.15266588912587D+03
 SCF Done:  E(RHF) =  -152.125825944     A.U. after    9 cycles
 E2 =    -0.5400927437D+00 EUMP2 =    -0.15266591868748D+03
 E2 =    -0.5418606123D+00 EUMP2 =    -0.15266528248072D+03
 E2 =    -0.5398811286D+00 EUMP2 =    -0.15266593215183D+03
 E2 =    -0.5401442355D+00 EUMP2 =    -0.15266614109336D+03
 E2 =    -0.5401025339D+00 EUMP2 =    -0.15266615254480D+03
 E2 =    -0.5400492227D+00 EUMP2 =    -0.15266615626700D+03
 SCF Done:  E(RHF) =  -152.126107834     A.U. after    7 cycles
 E2 =    -0.5400486555D+00 EUMP2 =    -0.15266615648968D+03
 SCF Done:  E(RHF) =  -152.126111332     A.U. after    6 cycles
 E2 =    -0.5400451730D+00 EUMP2 =    -0.15266615650507D+03
 SCF Done:  E(RHF) =  -152.126112468     A.U. after    5 cycles
 E2 =    -0.5400440366D+00 EUMP2 =    -0.15266615650445D+03
 SCF Done:  E(RHF) =  -152.126114499     A.U. after    7 cycles
 E2 =    -0.5400420041D+00 EUMP2 =    -0.15266615650266D+03
 SCF Done:  E(RHF) =  -152.126113329     A.U. after    5 cycles
 E2 =    -0.5400431771D+00 EUMP2 =    -0.15266615650647D+03
 SCF Done:  E(RHF) =  -152.126113636     A.U. after    6 cycles
 E2 =    -0.5400428697D+00 EUMP2 =    -0.15266615650554D+03
 SCF Done:  E(RHF) =  -152.126114264     A.U. after    5 cycles
 E2 =    -0.5400422459D+00 EUMP2 =    -0.15266615650947D+03
 SCF Done:  E(RHF) =  -152.126114710     A.U. after    5 cycles
 E2 =    -0.5400418002D+00 EUMP2 =    -0.15266615650973D+03
 SCF Done:  E(RHF) =  -152.126114419     A.U. after    5 cycles
 E2 =    -0.5400420911D+00 EUMP2 =    -0.15266615650996D+03
 Optimization completed.
    -- Stationary point found.
 Normal termination of Gaussian 16 at Fri Mar 31 12:22:27 2023.

 ----------------------------------------------------------------------
 #N Geom=AllCheck Guess=TCheck SCRF=Check GenChk RMP2(FC)/Aug-CC-pVTZ F
 req
 ----------------------------------------------------------------------

 Structure from the checkpoint file:  "/gscratch/scrubbed/gds001/Gau-24731.chk"
 -------------------
 Optimization Linear
 -------------------
 Charge =  0 Multiplicity = 1

                         Standard orientation:
 ---------------------------------------------------------------------
 Center     Atomic      Atomic             Coordinates (Angstroms)
 Number     Number       Type             X           Y           Z
 ---------------------------------------------------------------------
      1          8           0       -0.002363    1.533684    0.000000
      2          1           0       -0.002363    0.565374    0.000000
      3          8           0       -0.002363   -1.382680   -0.000000
      4          1           0        0.928780    1.769021    0.000000
      5          1           0       -0.444302   -1.771216    0.761278
      6          1           0       -0.444302   -1.771216   -0.761278
 ---------------------------------------------------------------------

 SCF Done:  E(RHF) =  -152.126114419     A.U. after    1 cycles
 E2 =    -0.5400420914D+00 EUMP2 =    -0.15266615651028D+03
 E2 =    -0.5400420914D+00 EUMP2 =    -0.15266615651028D+03

 The electronic state is 1-A'.
 Alpha  occ. eigenvalues --  -20.59385 -20.53478  -1.37975  -1.31952  -0.74193
 Alpha  occ. eigenvalues --   -0.69118  -0.61551  -0.55741  -0.53177  -0.47957
 Alpha virt. eigenvalues --    0.02197   0.04482   0.04757   0.07371   0.12512
 Alpha virt. eigenvalues --    0.14151   0.16289   0.16810   0.17664   0.18761
 Alpha virt. eigenvalues --    0.21477   0.22129   0.23507   0.24422   0.26753

 Mulliken charges:
               1
     1  O   -0.507547
     2  H    0.310098
     3  O   -0.449413
     4  H    0.199942
     5  H    0.223460
     6  H    0.223460
 Sum of Mulliken charges =  -0.00000

 Dipole moment (field-independent basis, Debye):
    X=              0.0168    Y=             -3.1207    Z=              0.0000  Tot=              3.1208
 Quadrupole moment (field-independent basis, Debye-Ang):
   XX=            -11.7356   YY=            -11.9384   ZZ=            -11.7582
   XY=              6.1665   XZ=             -0.0000   YZ=              0.0000

  Exact polarizability:  18.365   0.843  21.440   0.000  -0.000  18.589
 Approx polarizability:  14.248   0.890  14.297   0.000   0.000  14.052

                      1                      2                      3
                     A"                     A"                     A'
 Frequencies --    137.0896               143.1259               153.7245
 Red. masses --      1.0645                 1.0439                 1.5700
 Frc consts  --      0.0118                 0.0126                 0.0219
 IR Inten    --    123.7616                34.8709               102.8026

                      4                      5                      6
                     A'                     A'                     A"
 Frequencies --    182.2117               340.7944               621.8540
 Red. masses --      2.3717                 1.0838                 1.0425
 Frc consts  --      0.0464                 0.0742                 0.2375
 IR Inten    --    135.0042                73.6960                98.1981

                      7                      8                      9
                     A'                     A'                     A'
 Frequencies --   1628.1266              1655.3235              3725.2710
 Red. masses --      1.0844                 1.0776                 1.0529
 Frc consts  --      1.6936                 1.7397                 8.6091
 IR Inten    --     77.6134                51.3442               293.0161

                     10                     11                     12
                     A'                     A'                     A"
 Frequencies --   3814.5449              3915.2145              3936.2842
 Red. masses --      1.0448                 1.0742                 1.0817
 Frc consts  --      8.9572                 9.7015                 9.8752
 IR Inten    --      9.7430               113.5408                97.6934

 - Thermochemistry -
 -------------------
 Temperature   298.150 Kelvin.  Pressure   1.00000 Atm.
 Atom     1 has atomic number  8 and mass  15.99491

 Molecular mass:    36.02113 amu.
 Principal axes and moments of inertia in atomic units:
                           1         2         3
     Eigenvalues --     8.21082 282.93315 283.06547
           X            0.04209   0.00000   0.99911
           Y            0.99911   0.00000  -0.04209
           Z            0.00000   1.00000  -0.00000
 This molecule is an asymmetric top.
 Rotational symmetry number  1.
 Rotational temperatures (Kelvin)     10.54875     0.30613     0.30599
 Rotational constants (GHZ):         219.80024     6.37868     6.37570
 Zero-point vibrational energy     121143.2 (Joules/Mol)
                                   28.95392 (Kcal/Mol)
 Warning -- explicit consideration of   5 degrees of freedom as
           vibrations may cause significant error
 Vibrational temperatures:    197.24   205.93   221.18   262.16   490.33
          (Kelvin)            894.71  2342.51  2381.64  5359.83  5488.28
                             5633.12  5663.43

 Zero-point correction=                           0.046141 (Hartree/Particle)
 Thermal correction to Energy=                    0.052046
 Thermal correction to Enthalpy=                  0.052991
 Thermal correction to Gibbs Free Energy=         0.019750
 Sum of electronic and zero-point Energies=           -152.620015
 Sum of electronic and thermal Energies=              -152.614110
 Sum of electronic and thermal Enthalpies=            -152.613166
 Sum of electronic and thermal Free Energies=         -152.646406

                     E (Thermal)             CV                S
                      KCal/Mol        Cal/Mol-Kelvin    Cal/Mol-Kelvin
 Total                   32.660             16.221             69.960
 Electronic               0.000              0.000              0.000
 Translational            0.889              2.981             36.674
 Rotational               0.889              2.981             21.114
 Vibrational             30.882             10.259             12.172
 Vibration     1          0.614              1.916              2.844
 Vibration     2          0.616              1.910              2.762
 Vibration     3          0.619              1.899              2.626
 Vibration     4          0.630              1.864              2.306
 Vibration     5          0.720              1.594              1.208

 Optimization completed.
    -- Stationary point found.
 Normal termination of Gaussian 16 at Fri Mar 31 12:24:50 2023.
