 Gaussian 16, Revision A.03,

 ----------------------------
 # mp2/aug-cc-pVTZ Pop=ChelpG
 ----------------------------

 -----------------
 Title: R = 0.9121
 -----------------
 Symbolic Z-matrix:
 Charge =  0 Multiplicity = 1

 SCF Done:  E(RHF) =  -56.2120324323     A.U. after   10 cycles
 E2 =    -0.2382195945D+00 EUMP2 =    -0.56450252026769D+02
 Normal termination of Gaussian 16 at Sat Mar  9 10:58:25 2024.

 ----------------------------
 # mp2/aug-cc-pVTZ Pop=ChelpG
 ----------------------------

 -----------------
 Title: R = 0.9221
 -----------------
 Symbolic Z-matrix:
 Charge =  0 Multiplicity = 1

 SCF Done:  E(RHF) =  -56.2139823540     A.U. after   10 cycles
 E2 =    -0.2384105127D+00 EUMP2 =    -0.56452392866690D+02
 Normal termination of Gaussian 16 at Sat Mar  9 10:58:28 2024.

 ----------------------------
 # mp2/aug-cc-pVTZ Pop=ChelpG
 ----------------------------

 -----------------
 Title: R = 0.9321
 -----------------
 Symbolic Z-matrix:
 Charge =  0 Multiplicity = 1

 SCF Done:  E(RHF) =  -56.2156417568     A.U. after   10 cycles
 E2 =    -0.2386035967D+00 EUMP2 =    -0.56454245353486D+02
 Normal termination of Gaussian 16 at Sat Mar  9 10:58:31 2024.

 ----------------------------
 # mp2/aug-cc-pVTZ Pop=ChelpG
 ----------------------------

 -----------------
 Title: R = 0.9421
 -----------------
 Symbolic Z-matrix:
 Charge =  0 Multiplicity = 1

 SCF Done:  E(RHF) =  -56.2170278044     A.U. after   10 cycles
 E2 =    -0.2387987510D+00 EUMP2 =    -0.56455826555401D+02
 Normal termination of Gaussian 16 at Sat Mar  9 10:58:34 2024.

 ----------------------------
 # mp2/aug-cc-pVTZ Pop=ChelpG
 ----------------------------

 -----------------
 Title: R = 0.9521
 -----------------
 Symbolic Z-matrix:
 Charge =  0 Multiplicity = 1

 SCF Done:  E(RHF) =  -56.2181566797     A.U. after   10 cycles
 E2 =    -0.2389958797D+00 EUMP2 =    -0.56457152559376D+02

 ----------------------------
 # mp2/aug-cc-pVTZ Pop=ChelpG
 ----------------------------

 -----------------
 Title: R = 0.9621
 -----------------
 Symbolic Z-matrix:
 Charge =  0 Multiplicity = 1

 SCF Done:  E(RHF) =  -56.2190436436     A.U. after   10 cycles
 E2 =    -0.2391948870D+00 EUMP2 =    -0.56458238530555D+02
 SCF Done:  E(RHF) =  -56.2197030910     A.U. after   10 cycles
 E2 =    -0.2393956768D+00 EUMP2 =    -0.56459098767747D+02
 SCF Done:  E(RHF) =  -56.2201486027     A.U. after   10 cycles
 E2 =    -0.2395981534D+00 EUMP2 =    -0.56459746756017D+02
 SCF Done:  E(RHF) =  -56.2203929938     A.U. after   10 cycles
 E2 =    -0.2398022213D+00 EUMP2 =    -0.56460195215116D+02
 SCF Done:  E(RHF) =  -56.2204483594     A.U. after   10 cycles
 E2 =    -0.2400077862D+00 EUMP2 =    -0.56460456145610D+02
 E2 =    -0.2402147546D+00 EUMP2 =    -0.56460540871805D+02
 SCF Done:  E(RHF) =  -56.2200370469     A.U. after   10 cycles
 E2 =    -0.2404230351D+00 EUMP2 =    -0.56460460081982D+02
 SCF Done:  E(RHF) =  -56.2195913283     A.U. after   10 cycles
 E2 =    -0.2406325384D+00 EUMP2 =    -0.56460223866766D+02
 SCF Done:  E(RHF) =  -56.2189985758     A.U. after   10 cycles
 E2 =    -0.2408431784D+00 EUMP2 =    -0.56459841754235D+02
 SCF Done:  E(RHF) =  -56.2182678714     A.U. after   10 cycles
 E2 =    -0.2410548715D+00 EUMP2 =    -0.56459322742924D+02
 SCF Done:  E(RHF) =  -56.2174077957     A.U. after   10 cycles
 E2 =    -0.2412675388D+00 EUMP2 =    -0.56458675334475D+02
 SCF Done:  E(RHF) =  -56.2164264565     A.U. after   10 cycles
 E2 =    -0.2414811051D+00 EUMP2 =    -0.56457907561659D+02
 SCF Done:  E(RHF) =  -56.2153315163     A.U. after   10 cycles
 E2 =    -0.2416955002D+00 EUMP2 =    -0.56457027016539D+02
 Normal termination of Gaussian 16 at Sat Mar  9 10:59:20 2024.
 SCF Done:  E(RHF) =  -56.2141302176     A.U. after   10 cycles
 E2 =    -0.2419106587D+00 EUMP2 =    -0.56456040876240D+02
 Normal termination of Gaussian 16 at Sat Mar  9 10:59:23 2024.
 SCF Done:  E(RHF) =  -56.2128294068     A.U. after   10 cycles
 E2 =    -0.2421265203D+00 EUMP2 =    -0.56454955927151D+02
 Normal termination of Gaussian 16 at Sat Mar  9 10:59:27 2024.
 Gaussian 16:  ES64L-G16RevA.03 25-Dec-2016

                         Standard orientation:
 ---------------------------------------------------------------------
 Center     Atomic      Atomic             Coordinates (Angstroms)
 Number     Number       Type             X           Y           Z
 ---------------------------------------------------------------------
      1          7           0        0.000000    0.118097    0.000000
      2          1           0       -0.994826   -0.378982    0.000000
      3          1           0        0.497413   -0.223848    0.812404
      4          1           0        0.497413   -0.223848   -0.812404
 ---------------------------------------------------------------------

 SCF Done:  E(RHF) =  -56.2114355572     A.U. after   10 cycles
 E2 =    -0.2423430304D+00 EUMP2 =    -0.56453778587630D+02

 The electronic state is 1-A'.
 Alpha  occ. eigenvalues --  -15.55254  -1.12768  -0.62908  -0.60161  -0.42792
 Alpha virt. eigenvalues --    0.02920   0.04875   0.04879   0.11851   0.15055
 Alpha virt. eigenvalues --    0.16242   0.16275   0.21448   0.22147   0.23406
 Alpha virt. eigenvalues --    0.23479   0.25215   0.35498   0.35619   0.36899

 Mulliken charges:
               1
     1  N   -0.615384
     2  H    0.218278
     3  H    0.198553
     4  H    0.198553
 Sum of Mulliken charges =  -0.00000

 Dipole moment (field-independent basis, Debye):
    X=              0.1192    Y=             -1.5954    Z=             -0.0000  Tot=              1.5998
 Quadrupole moment (field-independent basis, Debye-Ang):
   XX=             -6.1593   YY=             -9.3377   ZZ=             -6.3196
   XY=              0.2996   XZ=             -0.0000   YZ=             -0.0000

 ESP charges:
               1
     1  N   -0.886010
     2  H    0.277491
     3  H    0.304260
     4  H    0.304260
 Sum of ESP charges =  -0.00000

 Normal termination of Gaussian 16 at Sat Mar  9 10:59:30 2024.
