 Gaussian 16, Revision A.03,
 Gaussian 16:  ES64L-G16RevA.03 25-Dec-2016

 -------------------------------------
 # mp2/aug-cc-pVTZ opt=(z-matrix) freq
 -------------------------------------

 --------------
 Opt To Minimum
 --------------
 Symbolic Z-matrix:
 Charge =  0 Multiplicity = 1

 SCF Done:  E(RHF) =  -56.2199489010     A.U. after   10 cycles
 E2 =    -0.2392808648D+00 EUMP2 =    -0.56459229765766D+02
 SCF Done:  E(RHF) =  -56.2205984854     A.U. after    9 cycles
 E2 =    -0.2397037013D+00 EUMP2 =    -0.56460302186671D+02
 SCF Done:  E(RHF) =  -56.2203776450     A.U. after    9 cycles
 E2 =    -0.2401615791D+00 EUMP2 =    -0.56460539224126D+02
 SCF Done:  E(RHF) =  -56.2203260682     A.U. after    7 cycles
 E2 =    -0.2402147995D+00 EUMP2 =    -0.56460540867646D+02
 Optimization completed.
    -- Stationary point found.
 Normal termination of Gaussian 16 at Thu Mar 30 17:17:02 2023.

 ----------------------------------------------------------------------
 #N Geom=AllCheck Guess=TCheck SCRF=Check GenChk RMP2(FC)/Aug-CC-pVTZ F
 req
 ----------------------------------------------------------------------

 Structure from the checkpoint file:  "/gscratch/scrubbed/gds001/Gau-166641.chk"
 --------------
 Opt To Minimum
 --------------
 Charge =  0 Multiplicity = 1

                         Standard orientation:
 ---------------------------------------------------------------------
 Center     Atomic      Atomic             Coordinates (Angstroms)
 Number     Number       Type             X           Y           Z
 ---------------------------------------------------------------------
      1          7           0        0.000000    0.000000    0.113979
      2          1           0        0.000000    0.938084   -0.265951
      3          1           0       -0.812405   -0.469042   -0.265951
      4          1           0        0.812405   -0.469042   -0.265951
 ---------------------------------------------------------------------

 SCF Done:  E(RHF) =  -56.2203260682     A.U. after    1 cycles
 E2 =    -0.2402148020D+00 EUMP2 =    -0.56460540870206D+02
 E2 =    -0.2402148020D+00 EUMP2 =    -0.56460540870206D+02

 The electronic state is 1-A1.
 Alpha  occ. eigenvalues --  -15.54171  -1.14245  -0.62885  -0.62885  -0.42932
 Alpha virt. eigenvalues --    0.02954   0.04868   0.04868   0.11788   0.15244
 Alpha virt. eigenvalues --    0.16233   0.16233   0.22147   0.22147   0.23538
 Alpha virt. eigenvalues --    0.23538   0.25459   0.35597   0.35802   0.37067

 Mulliken charges:
               1
     1  N   -0.596500
     2  H    0.198833
     3  H    0.198833
     4  H    0.198833
 Sum of Mulliken charges =   0.00000

 Dipole moment (field-independent basis, Debye):
    X=             -0.0000    Y=             -0.0000    Z=             -1.6117  Tot=              1.6117
 Quadrupole moment (field-independent basis, Debye-Ang):
   XX=             -6.2215   YY=             -6.2215   ZZ=             -9.2599
   XY=             -0.0000   XZ=              0.0000   YZ=              0.0000

  Exact polarizability:  13.633  -0.000  13.633   0.000  -0.000  15.303
 Approx polarizability:  10.839  -0.000  10.839   0.000   0.000  10.594

                      1                      2                      3
                     A1                      E                      E
 Frequencies --   1037.1465              1668.8670              1668.8670
 Red. masses --      1.1812                 1.0664                 1.0664
 Frc consts  --      0.7486                 1.7500                 1.7500
 IR Inten    --    139.2516                14.3238                14.3238

                      4                      5                      6
                     A1                      E                      E
 Frequencies --   3503.1029              3650.1139              3650.1139
 Red. masses --      1.0263                 1.0893                 1.0893
 Frc consts  --      7.4205                 8.5511                 8.5511
 IR Inten    --      3.3871                 8.4129                 8.4129

 - Thermochemistry -
 -------------------
 Temperature   298.150 Kelvin.  Pressure   1.00000 Atm.
 Atom     1 has atomic number  7 and mass  14.00307

 Molecular mass:    17.02655 amu.
 Principal axes and moments of inertia in atomic units:
                           1         2         3
     Eigenvalues --     6.03246   6.03246   9.50140
           X            0.83721   0.54688   0.00000
           Y           -0.54688   0.83721   0.00000
           Z           -0.00000  -0.00000   1.00000
 This molecule is an oblate symmetric top.
 Rotational symmetry number  3.
 Rotational temperatures (Kelvin)     14.35798    14.35798     9.11591
 Rotational constants (GHZ):         299.17170   299.17170   189.94478
 Zero-point vibrational energy      90785.9 (Joules/Mol)
                                   21.69834 (Kcal/Mol)
 Vibrational temperatures:   1492.22  2401.13  2401.13  5040.18  5251.70
          (Kelvin)           5251.70

 Zero-point correction=                           0.034579 (Hartree/Particle)
 Thermal correction to Energy=                    0.037448
 Thermal correction to Enthalpy=                  0.038392
 Thermal correction to Gibbs Free Energy=         0.016555
 Sum of electronic and zero-point Energies=            -56.425962
 Sum of electronic and thermal Energies=               -56.423093
 Sum of electronic and thermal Enthalpies=             -56.422149
 Sum of electronic and thermal Free Energies=          -56.443986

                     E (Thermal)             CV                S
                      KCal/Mol        Cal/Mol-Kelvin    Cal/Mol-Kelvin
 Total                   23.499              6.382             45.961
 Electronic               0.000              0.000              0.000
 Translational            0.889              2.981             34.441
 Rotational               0.889              2.981             11.428
 Vibrational             21.721              0.420              0.092

 Optimization completed.
    -- Stationary point found.
 Normal termination of Gaussian 16 at Thu Mar 30 17:17:38 2023.
