 Gaussian 16, Revision A.03,
 Gaussian 16:  ES64L-G16RevA.03 25-Dec-2016

 ------------------------------------------------------------
 # mp2/aug-cc-pVTZ opt=(z-matrix,Tight,MaxCycles=100000) freq
 ------------------------------------------------------------

 ------------
 Optimization
 ------------
 Symbolic Z-matrix:
 Charge =  0 Multiplicity = 1

 SCF Done:  E(RHF) =  -156.296336593     A.U. after   10 cycles
 E2 =    -0.5257003390D+00 EUMP2 =    -0.15682203693153D+03
 SCF Done:  E(RHF) =  -156.296339041     A.U. after    3 cycles
 E2 =    -0.5256979100D+00 EUMP2 =    -0.15682203695117D+03
 Optimization completed.
    -- Stationary point found.
 Normal termination of Gaussian 16 at Fri Mar 31 12:30:53 2023.

 ----------------------------------------------------------------------
 #N Geom=AllCheck Guess=TCheck SCRF=Check GenChk RMP2(FC)/Aug-CC-pVTZ F
 req
 ----------------------------------------------------------------------

 Structure from the checkpoint file:  "/gscratch/scrubbed/gds001/Gau-6787.chk"
 ------------
 Optimization
 ------------
 Charge =  0 Multiplicity = 1

                         Standard orientation:
 ---------------------------------------------------------------------
 Center     Atomic      Atomic             Coordinates (Angstroms)
 Number     Number       Type             X           Y           Z
 ---------------------------------------------------------------------
      1          9           0       -0.000000   -0.000000    1.421722
      2          1           0       -0.000000   -0.000000    0.464547
      3          7           0        0.000000    0.000000   -1.214381
      4          1           0        0.000000    0.941636   -1.586460
      5          1           0        0.815481   -0.470818   -1.586460
      6          1           0       -0.815481   -0.470818   -1.586460
 ---------------------------------------------------------------------

 SCF Done:  E(RHF) =  -156.296339041     A.U. after    1 cycles
 E2 =    -0.5256979000D+00 EUMP2 =    -0.15682203694116D+03
 E2 =    -0.5256979000D+00 EUMP2 =    -0.15682203694116D+03

 The electronic state is 1-A1.
 Alpha  occ. eigenvalues --  -26.22367 -15.58824  -1.52509  -1.19257  -0.70956
 Alpha  occ. eigenvalues --   -0.67690  -0.67690  -0.58036  -0.58036  -0.48448
 Alpha virt. eigenvalues --    0.01890   0.04189   0.04189   0.06944   0.12819
 Alpha virt. eigenvalues --    0.13791   0.14915   0.14915   0.19653   0.19653
 Alpha virt. eigenvalues --    0.20746   0.20746   0.23666   0.27316   0.27316

 Mulliken charges:
               1
     1  F   -0.463983
     2  H    0.340832
     3  N   -0.248120
     4  H    0.123757
     5  H    0.123757
     6  H    0.123757
 Sum of Mulliken charges =  -0.00000

 Dipole moment (field-independent basis, Debye):
    X=             -0.0000    Y=             -0.0000    Z=             -4.7820  Tot=              4.7820
 Quadrupole moment (field-independent basis, Debye-Ang):
   XX=            -11.6648   YY=            -11.6648   ZZ=            -13.5449
   XY=             -0.0000   XZ=              0.0000   YZ=              0.0000

  Exact polarizability:  16.827  -0.000  16.827  -0.000  -0.000  23.547
 Approx polarizability:  13.703  -0.000  13.703  -0.000   0.000  15.495

                      1                      2                      3
                      E                      E                     A1
 Frequencies --    267.5952               267.5953               276.0415
 Red. masses --      1.0981                 1.0981                 5.2835
 Frc consts  --      0.0463                 0.0463                 0.2372
 IR Inten    --      9.8042                 9.8042                 8.8302

                      4                      5                      6
                      E                      E                     A1
 Frequencies --    993.5784               993.5784              1137.2189
 Red. masses --      1.0492                 1.0492                 1.1963
 Frc consts  --      0.6102                 0.6102                 0.9115
 IR Inten    --    105.5995               105.5995               150.9534

                      7                      8                      9
                      E                      E                     A1
 Frequencies --   1669.1509              1669.1509              3337.7646
 Red. masses --      1.0617                 1.0617                 1.0638
 Frc consts  --      1.7428                 1.7428                 6.9830
 IR Inten    --     17.6862                17.6862              1609.3512

                     10                     11                     12
                     A1                      E                      E
 Frequencies --   3503.7675              3645.4687              3645.4687
 Red. masses --      1.0272                 1.0897                 1.0897
 Frc consts  --      7.4296                 8.5325                 8.5325
 IR Inten    --      6.7249                25.1805                25.1805

 - Thermochemistry -
 -------------------
 Temperature   298.150 Kelvin.  Pressure   1.00000 Atm.
 Atom     1 has atomic number  9 and mass  18.99840

 Molecular mass:    37.03278 amu.
 Principal axes and moments of inertia in atomic units:
                           1         2         3
     Eigenvalues --     9.57349 240.50873 240.50873
           X            0.00000   0.58207   0.81314
           Y            0.00000   0.81314  -0.58207
           Z            1.00000  -0.00000  -0.00000
 This molecule is a prolate symmetric top.
 Rotational symmetry number  3.
 Rotational temperatures (Kelvin)      9.04727     0.36013     0.36013
 Rotational constants (GHZ):         188.51447     7.50385     7.50385
 Zero-point vibrational energy     128038.6 (Joules/Mol)
                                   30.60196 (Kcal/Mol)
 Warning -- explicit consideration of   3 degrees of freedom as
           vibrations may cause significant error
 Vibrational temperatures:    385.01   385.01   397.16  1429.54  1429.54
          (Kelvin)           1636.20  2401.54  2401.54  4802.30  5041.14
                             5245.02  5245.02

 Zero-point correction=                           0.048767 (Hartree/Particle)
 Thermal correction to Energy=                    0.053077
 Thermal correction to Enthalpy=                  0.054021
 Thermal correction to Gibbs Free Energy=         0.025250
 Sum of electronic and zero-point Energies=           -156.773270
 Sum of electronic and thermal Energies=              -156.768960
 Sum of electronic and thermal Enthalpies=            -156.768016
 Sum of electronic and thermal Free Energies=         -156.796787

                     E (Thermal)             CV                S
                      KCal/Mol        Cal/Mol-Kelvin    Cal/Mol-Kelvin
 Total                   33.306             12.245             60.555
 Electronic               0.000              0.000              0.000
 Translational            0.889              2.981             36.757
 Rotational               0.889              2.981             18.760
 Vibrational             31.529              6.283              5.038
 Vibration     1          0.673              1.733              1.612
 Vibration     2          0.673              1.733              1.612
 Vibration     3          0.678              1.718              1.558

 Optimization completed.
    -- Stationary point found.
 Normal termination of Gaussian 16 at Fri Mar 31 12:33:15 2023.
