 Gaussian 16, Revision A.03,

 -----------------------------------------
 # mp2/aug-cc-pVTZ pop=ChelpG opt=z-matrix
 -----------------------------------------

 --------------------------------
 Title: Rab = 2.1361 Optimization
 --------------------------------
 Symbolic Z-matrix:
 Charge =  0 Multiplicity = 1

 SCF Done:  E(RHF) =  -156.260580413     A.U. after   10 cycles
 E2 =    -0.5294127997D+00 EUMP2 =    -0.15678999321299D+03
 SCF Done:  E(RHF) =  -156.260516503     A.U. after    7 cycles
 E2 =    -0.5294893045D+00 EUMP2 =    -0.15679000580704D+03
 SCF Done:  E(RHF) =  -156.260469291     A.U. after    7 cycles
 E2 =    -0.5295442840D+00 EUMP2 =    -0.15679001357512D+03
 Optimization completed.
    -- Stationary point found.
 Normal termination of Gaussian 16 at Sat Mar  9 10:49:33 2024.

 -----------------------------------------
 # mp2/aug-cc-pVTZ pop=ChelpG opt=z-matrix
 -----------------------------------------

 --------------------------------
 Title: Rab = 2.2361 Optimization
 --------------------------------
 Symbolic Z-matrix:
 Charge =  0 Multiplicity = 1

 SCF Done:  E(RHF) =  -156.276779020     A.U. after   10 cycles
 E2 =    -0.5286149045D+00 EUMP2 =    -0.15680539392445D+03
 SCF Done:  E(RHF) =  -156.276567744     A.U. after    8 cycles
 E2 =    -0.5289029833D+00 EUMP2 =    -0.15680547072704D+03
 SCF Done:  E(RHF) =  -156.276321437     A.U. after    8 cycles
 E2 =    -0.5291771767D+00 EUMP2 =    -0.15680549861342D+03
 Optimization completed.
 Normal termination of Gaussian 16 at Sat Mar  9 10:50:17 2024.

 -----------------------------------------
 # mp2/aug-cc-pVTZ pop=ChelpG opt=z-matrix
 -----------------------------------------

 --------------------------------
 Title: Rab = 2.3361 Optimization
 --------------------------------
 Symbolic Z-matrix:
 Charge =  0 Multiplicity = 1

 SCF Done:  E(RHF) =  -156.286537340     A.U. after   10 cycles
 E2 =    -0.5278109446D+00 EUMP2 =    -0.15681434828498D+03
 SCF Done:  E(RHF) =  -156.286195223     A.U. after    8 cycles
 E2 =    -0.5282679112D+00 EUMP2 =    -0.15681446313463D+03
 SCF Done:  E(RHF) =  -156.285951731     A.U. after    8 cycles
 E2 =    -0.5285296794D+00 EUMP2 =    -0.15681448141013D+03
 Normal termination of Gaussian 16 at Sat Mar  9 10:51:00 2024.

 -----------------------------------------
 # mp2/aug-cc-pVTZ pop=ChelpG opt=z-matrix
 -----------------------------------------

 --------------------------------
 Title: Rab = 2.4361 Optimization
 --------------------------------
 Symbolic Z-matrix:
 Charge =  0 Multiplicity = 1

 SCF Done:  E(RHF) =  -156.292162796     A.U. after   10 cycles
 E2 =    -0.5270380441D+00 EUMP2 =    -0.15681920083975D+03
 E2 =    -0.5274190344D+00 EUMP2 =    -0.15681926915235D+03
 E2 =    -0.5276241125D+00 EUMP2 =    -0.15681927897755D+03
 Normal termination of Gaussian 16 at Sat Mar  9 10:51:43 2024.

 -----------------------------------------
 # mp2/aug-cc-pVTZ pop=ChelpG opt=z-matrix
 -----------------------------------------

 --------------------------------
 Title: Rab = 2.5361 Optimization
 --------------------------------
 Symbolic Z-matrix:
 Charge =  0 Multiplicity = 1

 E2 =    -0.5263290834D+00 EUMP2 =    -0.15682144328061D+03
 E2 =    -0.5265388712D+00 EUMP2 =    -0.15682146192811D+03
 E2 =    -0.5266363277D+00 EUMP2 =    -0.15682146408630D+03

 -----------------------------------------
 # mp2/aug-cc-pVTZ pop=ChelpG opt=z-matrix
 -----------------------------------------

 --------------------------------
 Title: Rab = 2.6361 Optimization
 --------------------------------
 Symbolic Z-matrix:
 Charge =  0 Multiplicity = 1

 E2 =    -0.5257003471D+00 EUMP2 =    -0.15682203693155D+03
 E2 =    -0.5251530768D+00 EUMP2 =    -0.15682161228119D+03
 E2 =    -0.5249311293D+00 EUMP2 =    -0.15682163062961D+03
 E2 =    -0.5248611564D+00 EUMP2 =    -0.15682163185562D+03
 E2 =    -0.5246806791D+00 EUMP2 =    -0.15682058778574D+03
 E2 =    -0.5221524885D+00 EUMP2 =    -0.15680020681330D+03
 E2 =    -0.5202704451D+00 EUMP2 =    -0.15680147934643D+03
 E2 =    -0.5202278654D+00 EUMP2 =    -0.15680148426089D+03
 E2 =    -0.5202444991D+00 EUMP2 =    -0.15680148602269D+03
 E2 =    -0.5202696760D+00 EUMP2 =    -0.15680148649764D+03
 Normal termination of Gaussian 16 at Sat Mar  9 11:17:32 2024.
 E2 =    -0.5221545233D+00 EUMP2 =    -0.15680018739973D+03
 E2 =    -0.5202717099D+00 EUMP2 =    -0.15680146055640D+03
 E2 =    -0.5202290337D+00 EUMP2 =    -0.15680146542823D+03
 E2 =    -0.5202454870D+00 EUMP2 =    -0.15680146716591D+03
 E2 =    -0.5202705829D+00 EUMP2 =    -0.15680146763849D+03
 Normal termination of Gaussian 16 at Sat Mar  9 11:18:20 2024.
 SCF Done:  E(RHF) =  -156.278020182     A.U. after   10 cycles
 E2 =    -0.5221557711D+00 EUMP2 =    -0.15680017595306D+03
 SCF Done:  E(RHF) =  -156.281176955     A.U. after    9 cycles
 E2 =    -0.5202725078D+00 EUMP2 =    -0.15680144946308D+03
 SCF Done:  E(RHF) =  -156.281224542     A.U. after    7 cycles
 E2 =    -0.5202297662D+00 EUMP2 =    -0.15680145430797D+03
 SCF Done:  E(RHF) =  -156.281209927     A.U. after    7 cycles
 E2 =    -0.5202461037D+00 EUMP2 =    -0.15680145603024D+03
 SCF Done:  E(RHF) =  -156.281185354     A.U. after    6 cycles
 E2 =    -0.5202711476D+00 EUMP2 =    -0.15680145650130D+03
    -- Stationary point found.
 Normal termination of Gaussian 16 at Sat Mar  9 11:19:07 2024.
 Gaussian 16:  ES64L-G16RevA.03 25-Dec-2016
 SCF Done:  E(RHF) =  -156.278012199     A.U. after   10 cycles
 E2 =    -0.5221565772D+00 EUMP2 =    -0.15680016877662D+03
 SCF Done:  E(RHF) =  -156.281169467     A.U. after    9 cycles
 E2 =    -0.5202730338D+00 EUMP2 =    -0.15680144250103D+03
 SCF Done:  E(RHF) =  -156.281217081     A.U. after    7 cycles
 E2 =    -0.5202302470D+00 EUMP2 =    -0.15680144732809D+03
 SCF Done:  E(RHF) =  -156.281202533     A.U. after    7 cycles
 E2 =    -0.5202465070D+00 EUMP2 =    -0.15680144904008D+03
 SCF Done:  E(RHF) =  -156.281177994     A.U. after    6 cycles
 E2 =    -0.5202715157D+00 EUMP2 =    -0.15680144951011D+03
 Optimization completed.
    -- Stationary point found.

                         Standard orientation:
 ---------------------------------------------------------------------
 Center     Atomic      Atomic             Coordinates (Angstroms)
 Number     Number       Type             X           Y           Z
 ---------------------------------------------------------------------
      1          9           0       -0.000000   -0.000000   10.421147
      2          1           0       -0.000000   -0.000000    9.499310
      3          7           0        0.000000    0.000000  -10.214953
      4          1           0        0.000000    0.938060  -10.594987
      5          1           0        0.812384   -0.469030  -10.594987
      6          1           0       -0.812384   -0.469030  -10.594987
 ---------------------------------------------------------------------

 The electronic state is 1-A1.
 Alpha  occ. eigenvalues --  -26.29906 -15.54225  -1.60065  -1.14297  -0.76633
 Alpha  occ. eigenvalues --   -0.64959  -0.64959  -0.62935  -0.62935  -0.42987
 Alpha virt. eigenvalues --    0.02905   0.03094   0.04820   0.04820   0.11729
 Alpha virt. eigenvalues --    0.13916   0.15192   0.16180   0.16180   0.20179
 Alpha virt. eigenvalues --    0.20179   0.20820   0.22098   0.22098   0.23486

 Mulliken charges:
               1
     1  F   -0.378042
     2  H    0.378042
     3  N   -0.596606
     4  H    0.198869
     5  H    0.198869
     6  H    0.198869
 Sum of Mulliken charges =  -0.00000

 Dipole moment (field-independent basis, Debye):
    X=             -0.0000    Y=             -0.0000    Z=             -3.5482  Tot=              3.5482
 Quadrupole moment (field-independent basis, Debye-Ang):
   XX=            -11.9236   YY=            -11.9236   ZZ=            -19.4397
   XY=             -0.0000   XZ=              0.0000   YZ=              0.0000

 ESP charges:
               1
     1  F   -0.443097
     2  H    0.441558
     3  N   -0.911211
     4  H    0.303752
     5  H    0.304500
     6  H    0.304500
 Sum of ESP charges =   0.00000

 Normal termination of Gaussian 16 at Sat Mar  9 11:19:54 2024.
