 Gaussian 16, Revision A.03,
 Gaussian 16:  ES64L-G16RevA.03 25-Dec-2016

 ----------------------------------------------------------------------
 # mp2/aug-cc-pVTZ opt=(z-matrix,Tight,CalcAll,MaxStep=1,MaxCycles=1000
 00) freq
 ----------------------------------------------------------------------

 -------------------
 Optimizaiton Linear
 -------------------
 Symbolic Z-matrix:
 Charge =  0 Multiplicity = 1

 SCF Done:  E(RHF) =  -132.284771790     A.U. after   10 cycles
 E2 =    -0.5131772054D+00 EUMP2 =    -0.13279794899548D+03
 E2 =    -0.5131772054D+00 EUMP2 =    -0.13279794899548D+03
 SCF Done:  E(RHF) =  -132.285148792     A.U. after    7 cycles
 E2 =    -0.5131414897D+00 EUMP2 =    -0.13279829028149D+03
 E2 =    -0.5131414897D+00 EUMP2 =    -0.13279829028149D+03
 SCF Done:  E(RHF) =  -132.285754389     A.U. after    8 cycles
 E2 =    -0.5131012904D+00 EUMP2 =    -0.13279885567962D+03
 E2 =    -0.5131012904D+00 EUMP2 =    -0.13279885567962D+03
 SCF Done:  E(RHF) =  -132.286806049     A.U. after    8 cycles
 E2 =    -0.5129896730D+00 EUMP2 =    -0.13279979572162D+03
 E2 =    -0.5129896730D+00 EUMP2 =    -0.13279979572162D+03
 SCF Done:  E(RHF) =  -132.287065789     A.U. after    9 cycles
 E2 =    -0.5129660612D+00 EUMP2 =    -0.13280003184998D+03
 E2 =    -0.5129660612D+00 EUMP2 =    -0.13280003184998D+03
 SCF Done:  E(RHF) =  -132.287102558     A.U. after    8 cycles
 E2 =    -0.5129381618D+00 EUMP2 =    -0.13280004071967D+03
 E2 =    -0.5129381618D+00 EUMP2 =    -0.13280004071967D+03
 SCF Done:  E(RHF) =  -132.287103654     A.U. after    6 cycles
 E2 =    -0.5129371988D+00 EUMP2 =    -0.13280004085241D+03
 E2 =    -0.5129371988D+00 EUMP2 =    -0.13280004085241D+03
 Optimization completed.
    -- Stationary point found.
 ******    1 imaginary frequencies (negative Signs) ******
    1 imaginary frequencies ignored.
 Normal termination of Gaussian 16 at Mon Jun  5 14:11:41 2023.

 ----------------------------------------------------------------------
 #N Geom=AllCheck Guess=TCheck SCRF=Check GenChk RMP2(FC)/Aug-CC-pVTZ F
 req
 ----------------------------------------------------------------------

 Structure from the checkpoint file:  "/gscratch/scrubbed/gds001/Gau-17619.chk"
 -------------------
 Optimizaiton Linear
 -------------------
 Charge =  0 Multiplicity = 1

                         Standard orientation:
 ---------------------------------------------------------------------
 Center     Atomic      Atomic             Coordinates (Angstroms)
 Number     Number       Type             X           Y           Z
 ---------------------------------------------------------------------
      1          8           0        0.041839    1.565039    0.000000
      2          1           0        0.041839    0.590273    0.000000
      3          7           0        0.041839   -1.378162    0.000000
      4          1           0       -0.888388    1.803171    0.000000
      5          1           0        1.008364   -1.680944    0.000000
      6          1           0       -0.394702   -1.792840    0.814012
      7          1           0       -0.394702   -1.792840   -0.814012
 ---------------------------------------------------------------------

 SCF Done:  E(RHF) =  -132.287103654     A.U. after    1 cycles
 E2 =    -0.5129372047D+00 EUMP2 =    -0.13280004085824D+03
 E2 =    -0.5129372047D+00 EUMP2 =    -0.13280004085824D+03

 The electronic state is 1-A'.
 Alpha  occ. eigenvalues --  -20.52354 -15.56661  -1.30834  -1.16928  -0.67709
 Alpha  occ. eigenvalues --   -0.65493  -0.65379  -0.55109  -0.46884  -0.45560
 Alpha virt. eigenvalues --    0.02197   0.04386   0.04387   0.05231   0.07767
 Alpha virt. eigenvalues --    0.13346   0.14017   0.15274   0.15573   0.17710
 Alpha virt. eigenvalues --    0.18211   0.19874   0.20658   0.20960   0.22515

 Mulliken charges:
               1
     1  O   -0.509807
     2  H    0.284775
     3  N   -0.421289
     4  H    0.185313
     5  H    0.148930
     6  H    0.156039
     7  H    0.156039
 Sum of Mulliken charges =  -0.00000

 Dipole moment (field-independent basis, Debye):
    X=             -1.3617    Y=             -3.6139    Z=             -0.0000  Tot=              3.8619
 Quadrupole moment (field-independent basis, Debye-Ang):
   XX=            -11.5125   YY=            -13.4136   ZZ=            -13.7086
   XY=             -3.2817   XZ=             -0.0000   YZ=              0.0000

  Exact polarizability:  22.050  -0.666  28.093  -0.000  -0.000  21.761
 Approx polarizability:  18.145  -0.350  18.251   0.000   0.000  16.885

 ******    1 imaginary frequencies (negative Signs) ******

                      1                      2                      3
                     A"                     A'                     A"
 Frequencies --    -47.5120               172.3410               182.1715
 Red. masses --      1.0836                 1.5390                 1.0683
 Frc consts  --      0.0014                 0.0269                 0.0209
 IR Inten    --     62.2110                14.0576                36.5795

                      4                      5                      6
                     A'                     A'                     A"
 Frequencies --    195.8771               440.9947               713.2866
 Red. masses --      2.0530                 1.0726                 1.0479
 Frc consts  --      0.0464                 0.1229                 0.3141
 IR Inten    --     18.9508                81.3327                92.1222

                      7                      8                      9
                     A'                     A'                     A"
 Frequencies --   1094.5744              1658.4645              1669.4473
 Red. masses --      1.1858                 1.0757                 1.0644
 Frc consts  --      0.8371                 1.7432                 1.7479
 IR Inten    --    146.2383                54.3486                17.0124

                     10                     11                     12
                     A'                     A'                     A'
 Frequencies --   1679.4743              3499.1346              3595.7291
 Red. masses --      1.0650                 1.0269                 1.0583
 Frc consts  --      1.7698                 7.4079                 8.0618
 IR Inten    --     14.8357                 1.5312               555.3297

                     13                     14                     15
                     A'                     A"                     A'
 Frequencies --   3642.2842              3645.5092              3908.1210
 Red. masses --      1.0892                 1.0895                 1.0699
 Frc consts  --      8.5135                 8.5307                 9.6278
 IR Inten    --     16.7541                16.0028                82.9964

 - Thermochemistry -
 -------------------
 Temperature   298.150 Kelvin.  Pressure   1.00000 Atm.
 Atom     1 has atomic number  8 and mass  15.99491

 Molecular mass:    35.03711 amu.
 Principal axes and moments of inertia in atomic units:
                           1         2         3
     Eigenvalues --    12.41282 285.22386 288.09764
           X           -0.02202   0.99976   0.00000
           Y            0.99976   0.02202   0.00000
           Z           -0.00000   0.00000   1.00000
 This molecule is an asymmetric top.
 Rotational symmetry number  1.
 Rotational temperatures (Kelvin)      6.97778     0.30367     0.30064
 Rotational constants (GHZ):         145.39331     6.32746     6.26434
    1 imaginary frequencies ignored.
 Zero-point vibrational energy     156097.2 (Joules/Mol)
                                   37.30812 (Kcal/Mol)
 Warning -- explicit consideration of   4 degrees of freedom as
           vibrations may cause significant error
 Vibrational temperatures:    247.96   262.10   281.82   634.49  1026.26
          (Kelvin)           1574.85  2386.16  2401.96  2416.39  5034.47
                             5173.45  5240.43  5245.07  5622.91

 Zero-point correction=                           0.059454 (Hartree/Particle)
 Thermal correction to Energy=                    0.064460
 Thermal correction to Enthalpy=                  0.065405
 Thermal correction to Gibbs Free Energy=         0.033939
 Sum of electronic and zero-point Energies=           -132.740587
 Sum of electronic and thermal Energies=              -132.735581
 Sum of electronic and thermal Enthalpies=            -132.734636
 Sum of electronic and thermal Free Energies=         -132.766101

                     E (Thermal)             CV                S
                      KCal/Mol        Cal/Mol-Kelvin    Cal/Mol-Kelvin
 Total                   40.449             14.140             66.224
 Electronic               0.000              0.000              0.000
 Translational            0.889              2.981             36.592
 Rotational               0.889              2.981             21.550
 Vibrational             38.672              8.179              8.082
 Vibration     1          0.626              1.877              2.410
 Vibration     2          0.630              1.864              2.306
 Vibration     3          0.636              1.846              2.171
 Vibration     4          0.801              1.381              0.823

 Optimization completed.
    -- Stationary point found.
 Normal termination of Gaussian 16 at Mon Jun  5 14:15:23 2023.
