 Gaussian 16, Revision A.03,

 ----------------------------
 # mp2/aug-cc-pVTZ Pop=ChelpG
 ----------------------------

 -----------------
 Title: R = 0.8218
 -----------------
 Symbolic Z-matrix:
 Charge =  0 Multiplicity = 1

 SCF Done:  E(RHF) =  -100.052119309     A.U. after    9 cycles
 E2 =    -0.2746300193D+00 EUMP2 =    -0.10032674932793D+03
 Normal termination of Gaussian 16 at Sat Mar  9 10:57:51 2024.

 ----------------------------
 # mp2/aug-cc-pVTZ Pop=ChelpG
 ----------------------------

 -----------------
 Title: R = 0.8318
 -----------------
 Symbolic Z-matrix:
 Charge =  0 Multiplicity = 1

 SCF Done:  E(RHF) =  -100.054560162     A.U. after    9 cycles
 E2 =    -0.2751715401D+00 EUMP2 =    -0.10032973170175D+03
 Normal termination of Gaussian 16 at Sat Mar  9 10:57:54 2024.

 ----------------------------
 # mp2/aug-cc-pVTZ Pop=ChelpG
 ----------------------------

 -----------------
 Title: R = 0.8418
 -----------------
 Symbolic Z-matrix:
 Charge =  0 Multiplicity = 1

 SCF Done:  E(RHF) =  -100.056584848     A.U. after    9 cycles
 E2 =    -0.2757139065D+00 EUMP2 =    -0.10033229875427D+03
 Normal termination of Gaussian 16 at Sat Mar  9 10:57:57 2024.

 ----------------------------
 # mp2/aug-cc-pVTZ Pop=ChelpG
 ----------------------------

 -----------------
 Title: R = 0.8518
 -----------------
 Symbolic Z-matrix:
 Charge =  0 Multiplicity = 1

 SCF Done:  E(RHF) =  -100.058221686     A.U. after    9 cycles
 E2 =    -0.2762568697D+00 EUMP2 =    -0.10033447855593D+03
 Normal termination of Gaussian 16 at Sat Mar  9 10:57:59 2024.

 ----------------------------
 # mp2/aug-cc-pVTZ Pop=ChelpG
 ----------------------------

 -----------------
 Title: R = 0.8618
 -----------------
 Symbolic Z-matrix:
 Charge =  0 Multiplicity = 1

 SCF Done:  E(RHF) =  -100.059497119     A.U. after    9 cycles
 E2 =    -0.2768001864D+00 EUMP2 =    -0.10033629730534D+03

 ----------------------------
 # mp2/aug-cc-pVTZ Pop=ChelpG
 ----------------------------

 -----------------
 Title: R = 0.8718
 -----------------
 Symbolic Z-matrix:
 Charge =  0 Multiplicity = 1

 SCF Done:  E(RHF) =  -100.060435842     A.U. after    9 cycles
 E2 =    -0.2773436214D+00 EUMP2 =    -0.10033777946320D+03
 SCF Done:  E(RHF) =  -100.061060926     A.U. after    9 cycles
 E2 =    -0.2778869500D+00 EUMP2 =    -0.10033894787614D+03
 SCF Done:  E(RHF) =  -100.061393931     A.U. after    9 cycles
 E2 =    -0.2784299603D+00 EUMP2 =    -0.10033982389139D+03
 SCF Done:  E(RHF) =  -100.061455008     A.U. after    9 cycles
 E2 =    -0.2789724547D+00 EUMP2 =    -0.10034042746289D+03
 SCF Done:  E(RHF) =  -100.061262998     A.U. after    9 cycles
 E2 =    -0.2795142512D+00 EUMP2 =    -0.10034077724950D+03
 E2 =    -0.2800551845D+00 EUMP2 =    -0.10034089070581D+03
 SCF Done:  E(RHF) =  -100.060189060     A.U. after    9 cycles
 E2 =    -0.2805951066D+00 EUMP2 =    -0.10034078416616D+03
 SCF Done:  E(RHF) =  -100.059339036     A.U. after    9 cycles
 E2 =    -0.2811338864D+00 EUMP2 =    -0.10034047292236D+03
 SCF Done:  E(RHF) =  -100.058299885     A.U. after    9 cycles
 E2 =    -0.2816714104D+00 EUMP2 =    -0.10033997129552D+03
 SCF Done:  E(RHF) =  -100.057085121     A.U. after    9 cycles
 E2 =    -0.2822075817D+00 EUMP2 =    -0.10033929270247D+03
 SCF Done:  E(RHF) =  -100.055707398     A.U. after    9 cycles
 E2 =    -0.2827423192D+00 EUMP2 =    -0.10033844971715D+03
 SCF Done:  E(RHF) =  -100.054178570     A.U. after    9 cycles
 E2 =    -0.2832755573D+00 EUMP2 =    -0.10033745412746D+03
 SCF Done:  E(RHF) =  -100.052509743     A.U. after    9 cycles
 E2 =    -0.2838072445D+00 EUMP2 =    -0.10033631698767D+03
 Normal termination of Gaussian 16 at Sat Mar  9 10:58:35 2024.
 SCF Done:  E(RHF) =  -100.050711324     A.U. after    9 cycles
 E2 =    -0.2843373428D+00 EUMP2 =    -0.10033504866713D+03
 Normal termination of Gaussian 16 at Sat Mar  9 10:58:37 2024.
 SCF Done:  E(RHF) =  -100.048793069     A.U. after    9 cycles
 E2 =    -0.2848658259D+00 EUMP2 =    -0.10033365889513D+03
 Normal termination of Gaussian 16 at Sat Mar  9 10:58:39 2024.
 Gaussian 16:  ES64L-G16RevA.03 25-Dec-2016

                         Standard orientation:
 ---------------------------------------------------------------------
 Center     Atomic      Atomic             Coordinates (Angstroms)
 Number     Number       Type             X           Y           Z
 ---------------------------------------------------------------------
      1          9           0        0.000000    0.000000    0.102180
      2          1           0        0.000000    0.000000   -0.919620
 ---------------------------------------------------------------------

 SCF Done:  E(RHF) =  -100.046764124     A.U. after    9 cycles
 E2 =    -0.2853926790D+00 EUMP2 =    -0.10033215680259D+03

 The electronic state is 1-SG.
 Alpha  occ. eigenvalues --  -26.30032  -1.57044  -0.72833  -0.64039  -0.64039
 Alpha virt. eigenvalues --    0.02733   0.13340   0.19852   0.20329   0.20329
 Alpha virt. eigenvalues --    0.28088   0.28088   0.31270   0.40585   0.66679
 Alpha virt. eigenvalues --    0.75740   0.75740   0.84694   0.84694   0.93311

 Mulliken charges:
               1
     1  F   -0.414392
     2  H    0.414392
 Sum of Mulliken charges =   0.00000

 Dipole moment (field-independent basis, Debye):
    X=              0.0000    Y=              0.0000    Z=             -2.1350  Tot=              2.1350
 Quadrupole moment (field-independent basis, Debye-Ang):
   XX=             -5.8015   YY=             -5.8015   ZZ=             -3.1953
   XY=              0.0000   XZ=              0.0000   YZ=              0.0000

 ESP charges:
               1
     1  F   -0.440726
     2  H    0.440726
 Sum of ESP charges =  -0.00000

 Normal termination of Gaussian 16 at Sat Mar  9 10:58:42 2024.
