 Gaussian 16, Revision A.03,
 Gaussian 16:  ES64L-G16RevA.03 25-Dec-2016

 -------------------------------------
 # mp2/aug-cc-pVTZ opt=(z-matrix) freq
 -------------------------------------

 ----
 blah
 ----
 Symbolic Z-matrix:
 Charge =  0 Multiplicity = 1

 SCF Done:  E(RHF) =  -100.051044159     A.U. after    9 cycles
 E2 =    -0.2842420437D+00 EUMP2 =    -0.10033528620223D+03
 SCF Done:  E(RHF) =  -100.060669105     A.U. after    9 cycles
 E2 =    -0.2802125753D+00 EUMP2 =    -0.10034088168040D+03
 SCF Done:  E(RHF) =  -100.060834934     A.U. after    7 cycles
 E2 =    -0.2800557729D+00 EUMP2 =    -0.10034089070655D+03
 Optimization completed.
    -- Stationary point found.
 Normal termination of Gaussian 16 at Thu Mar 30 11:06:58 2023.

 ----------------------------------------------------------------------
 #N Geom=AllCheck Guess=TCheck SCRF=Check GenChk RMP2(FC)/Aug-CC-pVTZ F
 req
 ----------------------------------------------------------------------

 Structure from the checkpoint file:  "/gscratch/scrubbed/gds001/Gau-109434.chk"
 ----
 blah
 ----
 Charge =  0 Multiplicity = 1

                         Standard orientation:
 ---------------------------------------------------------------------
 Center     Atomic      Atomic             Coordinates (Angstroms)
 Number     Number       Type             X           Y           Z
 ---------------------------------------------------------------------
      1          9           0        0.000000    0.000000    0.092181
      2          1           0        0.000000    0.000000   -0.829630
 ---------------------------------------------------------------------

 SCF Done:  E(RHF) =  -100.060834934     A.U. after    1 cycles
 E2 =    -0.2800557726D+00 EUMP2 =    -0.10034089070632D+03
 E2 =    -0.2800557726D+00 EUMP2 =    -0.10034089070632D+03

 The electronic state is 1-SG.
 Alpha  occ. eigenvalues --  -26.29952  -1.60112  -0.76679  -0.65005  -0.65005
 Alpha virt. eigenvalues --    0.03044   0.13868   0.20135   0.20135   0.20776
 Alpha virt. eigenvalues --    0.28535   0.28535   0.31068   0.42663   0.70900
 Alpha virt. eigenvalues --    0.75982   0.75982   0.82710   0.82710   0.94854

 Mulliken charges:
               1
     1  F   -0.377952
     2  H    0.377952
 Sum of Mulliken charges =  -0.00000

 Dipole moment (field-independent basis, Debye):
    X=              0.0000    Y=              0.0000    Z=             -1.9348  Tot=              1.9348
 Quadrupole moment (field-independent basis, Debye-Ang):
   XX=             -5.7019   YY=             -5.7019   ZZ=             -3.5242
   XY=              0.0000   XZ=              0.0000   YZ=              0.0000

  Exact polarizability:   4.962   0.000   4.962   0.000   0.000   6.378
 Approx polarizability:   3.517  -0.000   3.517  -0.000  -0.000   4.992

                      1
                     SG
 Frequencies --   4123.2680
 Red. masses --      1.0583
 Frc consts  --     10.6010
 IR Inten    --    120.6065

 - Thermochemistry -
 -------------------
 Temperature   298.150 Kelvin.  Pressure   1.00000 Atm.
 Atom     1 has atomic number  9 and mass  18.99840

 Molecular mass:    20.00623 amu.
 Principal axes and moments of inertia in atomic units:
                           1         2         3
     Eigenvalues --     0.00000   2.90415   2.90415
           X            0.00000  -0.00000   1.00000
           Y            0.00000   1.00000   0.00000
           Z            1.00000   0.00000   0.00000
 This molecule is a prolate symmetric top.
 Rotational symmetry number  1.
 Rotational temperature (Kelvin)     29.82423
 Rotational constant (GHZ):         621.436144
 Zero-point vibrational energy      24662.6 (Joules/Mol)
                                    5.89451 (Kcal/Mol)
 Vibrational temperatures:   5932.46
          (Kelvin)

 Zero-point correction=                           0.009393 (Hartree/Particle)
 Thermal correction to Energy=                    0.011754
 Thermal correction to Enthalpy=                  0.012698
 Thermal correction to Gibbs Free Energy=        -0.007012
 Sum of electronic and zero-point Energies=           -100.331497
 Sum of electronic and thermal Energies=              -100.329137
 Sum of electronic and thermal Enthalpies=            -100.328193
 Sum of electronic and thermal Free Energies=         -100.347903

                     E (Thermal)             CV                S
                      KCal/Mol        Cal/Mol-Kelvin    Cal/Mol-Kelvin
 Total                    7.376              4.968             41.484
 Electronic               0.000              0.000              0.000
 Translational            0.889              2.981             34.922
 Rotational               0.592              1.987              6.562
 Vibrational              5.895              0.000              0.000

 Optimization completed.
    -- Stationary point found.
 Normal termination of Gaussian 16 at Thu Mar 30 11:07:11 2023.
