 Gaussian 16, Revision A.03,

 ----------------------------
 # mp2/aug-cc-pVTZ Pop=ChelpG
 ----------------------------

 -----------------
 Title: R = 0.8613
 -----------------
 Symbolic Z-matrix:
 Charge =  0 Multiplicity = 1

 SCF Done:  E(RHF) =  -76.0519355607     A.U. after   10 cycles
 E2 =    -0.2647634291D+00 EUMP2 =    -0.76316698989775D+02
 Normal termination of Gaussian 16 at Sat Mar  9 10:58:01 2024.

 ----------------------------
 # mp2/aug-cc-pVTZ Pop=ChelpG
 ----------------------------

 -----------------
 Title: R = 0.8713
 -----------------
 Symbolic Z-matrix:
 Charge =  0 Multiplicity = 1

 SCF Done:  E(RHF) =  -76.0541267707     A.U. after   10 cycles
 E2 =    -0.2651492243D+00 EUMP2 =    -0.76319275994985D+02
 Normal termination of Gaussian 16 at Sat Mar  9 10:58:04 2024.

 ----------------------------
 # mp2/aug-cc-pVTZ Pop=ChelpG
 ----------------------------

 -----------------
 Title: R = 0.8813
 -----------------
 Symbolic Z-matrix:
 Charge =  0 Multiplicity = 1

 SCF Done:  E(RHF) =  -76.0559619127     A.U. after   10 cycles
 E2 =    -0.2655373387D+00 EUMP2 =    -0.76321499251348D+02
 Normal termination of Gaussian 16 at Sat Mar  9 10:58:07 2024.

 ----------------------------
 # mp2/aug-cc-pVTZ Pop=ChelpG
 ----------------------------

 -----------------
 Title: R = 0.8913
 -----------------
 Symbolic Z-matrix:
 Charge =  0 Multiplicity = 1

 SCF Done:  E(RHF) =  -76.0574637993     A.U. after   10 cycles
 E2 =    -0.2659275972D+00 EUMP2 =    -0.76323391396477D+02
 Normal termination of Gaussian 16 at Sat Mar  9 10:58:09 2024.

 ----------------------------
 # mp2/aug-cc-pVTZ Pop=ChelpG
 ----------------------------

 -----------------
 Title: R = 0.9013
 -----------------
 Symbolic Z-matrix:
 Charge =  0 Multiplicity = 1

 SCF Done:  E(RHF) =  -76.0586538314     A.U. after   10 cycles
 E2 =    -0.2663198246D+00 EUMP2 =    -0.76324973656029D+02

 ----------------------------
 # mp2/aug-cc-pVTZ Pop=ChelpG
 ----------------------------

 -----------------
 Title: R = 0.9113
 -----------------
 Symbolic Z-matrix:
 Charge =  0 Multiplicity = 1

 SCF Done:  E(RHF) =  -76.0595520890     A.U. after   10 cycles
 E2 =    -0.2667138469D+00 EUMP2 =    -0.76326265935881D+02
 SCF Done:  E(RHF) =  -76.0601774161     A.U. after   10 cycles
 E2 =    -0.2671094919D+00 EUMP2 =    -0.76327286908018D+02
 SCF Done:  E(RHF) =  -76.0605474999     A.U. after   10 cycles
 E2 =    -0.2675065908D+00 EUMP2 =    -0.76328054090668D+02
 SCF Done:  E(RHF) =  -76.0606789439     A.U. after   10 cycles
 E2 =    -0.2679049792D+00 EUMP2 =    -0.76328583923109D+02
 SCF Done:  E(RHF) =  -76.0605873371     A.U. after   10 cycles
 E2 =    -0.2683044985D+00 EUMP2 =    -0.76328891835534D+02
 E2 =    -0.2687049966D+00 EUMP2 =    -0.76328992314384D+02
 SCF Done:  E(RHF) =  -76.0597926339     A.U. after   10 cycles
 E2 =    -0.2691063296D+00 EUMP2 =    -0.76328898963535D+02
 SCF Done:  E(RHF) =  -76.0591161992     A.U. after   10 cycles
 E2 =    -0.2695083623D+00 EUMP2 =    -0.76328624561540D+02
 SCF Done:  E(RHF) =  -76.0582701456     A.U. after   10 cycles
 E2 =    -0.2699109693D+00 EUMP2 =    -0.76328181114929D+02
 SCF Done:  E(RHF) =  -76.0572658728     A.U. after   10 cycles
 E2 =    -0.2703140352D+00 EUMP2 =    -0.76327579907994D+02
 SCF Done:  E(RHF) =  -76.0561140945     A.U. after   10 cycles
 E2 =    -0.2707174549D+00 EUMP2 =    -0.76326831549364D+02
 SCF Done:  E(RHF) =  -76.0548248812     A.U. after   10 cycles
 E2 =    -0.2711211343D+00 EUMP2 =    -0.76325946015490D+02
 SCF Done:  E(RHF) =  -76.0534077012     A.U. after   10 cycles
 E2 =    -0.2715249900D+00 EUMP2 =    -0.76324932691183D+02
 Normal termination of Gaussian 16 at Sat Mar  9 10:58:47 2024.
 SCF Done:  E(RHF) =  -76.0518714582     A.U. after   10 cycles
 E2 =    -0.2719289491D+00 EUMP2 =    -0.76323800407376D+02
 Normal termination of Gaussian 16 at Sat Mar  9 10:58:50 2024.
 SCF Done:  E(RHF) =  -76.0502245269     A.U. after   10 cycles
 E2 =    -0.2723329494D+00 EUMP2 =    -0.76322557476294D+02
 Normal termination of Gaussian 16 at Sat Mar  9 10:58:52 2024.
 Gaussian 16:  ES64L-G16RevA.03 25-Dec-2016

                         Standard orientation:
 ---------------------------------------------------------------------
 Center     Atomic      Atomic             Coordinates (Angstroms)
 Number     Number       Type             X           Y           Z
 ---------------------------------------------------------------------
      1          8           0        0.000000    0.124625    0.000000
      2          1           0        0.793950   -0.579648    0.000000
      3          1           0       -0.793950   -0.417354   -0.000000
 ---------------------------------------------------------------------

 SCF Done:  E(RHF) =  -76.0484747857     A.U. after   10 cycles
 E2 =    -0.2727369385D+00 EUMP2 =    -0.76321211724182D+02

 The electronic state is 1-A'.
 Alpha  occ. eigenvalues --  -20.57608  -1.32986  -0.68970  -0.57431  -0.50658
 Alpha virt. eigenvalues --    0.02853   0.04750   0.13518   0.16102   0.17184
 Alpha virt. eigenvalues --    0.18340   0.22194   0.24302   0.26516   0.29788
 Alpha virt. eigenvalues --    0.30822   0.36406   0.42167   0.46016   0.59636

 Mulliken charges:
               1
     1  O   -0.499424
     2  H    0.277951
     3  H    0.221473
 Sum of Mulliken charges =  -0.00000

 Dipole moment (field-independent basis, Debye):
    X=             -0.0445    Y=             -2.0340    Z=              0.0000  Tot=              2.0345
 Quadrupole moment (field-independent basis, Debye-Ang):
   XX=             -4.1561   YY=             -6.2280   ZZ=             -7.6774
   XY=             -0.2793   XZ=              0.0000   YZ=             -0.0000

 ESP charges:
               1
     1  O   -0.698818
     2  H    0.342675
     3  H    0.356143
 Sum of ESP charges =  -0.00000

 Normal termination of Gaussian 16 at Sat Mar  9 10:58:55 2024.
