 Gaussian 16, Revision A.03,
 Gaussian 16:  ES64L-G16RevA.03 25-Dec-2016

 -------------------------------------
 # mp2/aug-cc-pVTZ opt=(z-matrix) freq
 -------------------------------------

 ----
 blah
 ----
 Symbolic Z-matrix:
 Charge =  0 Multiplicity = 1

 SCF Done:  E(RHF) =  -76.0545229036     A.U. after   10 cycles
 E2 =    -0.2717782133D+00 EUMP2 =    -0.76326301116908D+02
 SCF Done:  E(RHF) =  -76.0600698928     A.U. after    9 cycles
 E2 =    -0.2688705542D+00 EUMP2 =    -0.76328940447005D+02
 SCF Done:  E(RHF) =  -76.0602218576     A.U. after    8 cycles
 E2 =    -0.2687684806D+00 EUMP2 =    -0.76328990338181D+02
 SCF Done:  E(RHF) =  -76.0602861301     A.U. after    6 cycles
 E2 =    -0.2687061809D+00 EUMP2 =    -0.76328992311043D+02
 Optimization completed.
    -- Stationary point found.
 Normal termination of Gaussian 16 at Wed Mar 22 14:31:16 2023.

 ----------------------------------------------------------------------
 #N Geom=AllCheck Guess=TCheck SCRF=Check GenChk RMP2(FC)/Aug-CC-pVTZ F
 req
 ----------------------------------------------------------------------

 Structure from the checkpoint file:  "/gscratch/scrubbed/gds001/Gau-4084.chk"
 ----
 blah
 ----
 Charge =  0 Multiplicity = 1

                         Standard orientation:
 ---------------------------------------------------------------------
 Center     Atomic      Atomic             Coordinates (Angstroms)
 Number     Number       Type             X           Y           Z
 ---------------------------------------------------------------------
      1          8           0        0.000000    0.000000    0.118228
      2          1           0       -0.000000    0.758076   -0.472912
      3          1           0       -0.000000   -0.758076   -0.472912
 ---------------------------------------------------------------------

 SCF Done:  E(RHF) =  -76.0602861301     A.U. after    1 cycles
 E2 =    -0.2687061856D+00 EUMP2 =    -0.76328992315714D+02
 E2 =    -0.2687061856D+00 EUMP2 =    -0.76328992315714D+02

 The electronic state is 1-A1.
 Alpha  occ. eigenvalues --  -20.56809  -1.35179  -0.71482  -0.58496  -0.51015
 Alpha virt. eigenvalues --    0.02937   0.04769   0.13589   0.15878   0.17516
 Alpha virt. eigenvalues --    0.18308   0.22712   0.24492   0.26539   0.30000
 Alpha virt. eigenvalues --    0.31013   0.36578   0.43733   0.46604   0.59918

 Mulliken charges:
               1
     1  O   -0.444738
     2  H    0.222369
     3  H    0.222369
 Sum of Mulliken charges =  -0.00000

 Dipole moment (field-independent basis, Debye):
    X=             -0.0000    Y=              0.0000    Z=             -1.9926  Tot=              1.9926
 Quadrupole moment (field-independent basis, Debye-Ang):
   XX=             -7.5667   YY=             -4.2539   ZZ=             -6.2343
   XY=              0.0000   XZ=              0.0000   YZ=             -0.0000

  Exact polarizability:   9.248   0.000  10.017   0.000   0.000   9.552
 Approx polarizability:   6.199   0.000   7.862   0.000  -0.000   7.271

                      1                      2                      3
                     A1                     A1                     B2
 Frequencies --   1628.2672              3822.6281              3948.4315
 Red. masses --      1.0828                 1.0450                 1.0815
 Frc consts  --      1.6914                 8.9972                 9.9337
 IR Inten    --     71.6775                 5.5633                75.4549

 - Thermochemistry -
 -------------------
 Temperature   298.150 Kelvin.  Pressure   1.00000 Atm.
 Atom     1 has atomic number  8 and mass  15.99491

 Molecular mass:    18.01056 amu.
 Principal axes and moments of inertia in atomic units:
                           1         2         3
     Eigenvalues --     2.23382   4.13655   6.37037
           X            0.00000   0.00000   1.00000
           Y            1.00000   0.00000  -0.00000
           Z           -0.00000   1.00000  -0.00000
 This molecule is an asymmetric top.
 Rotational symmetry number  2.
 Rotational temperatures (Kelvin)     38.77385    20.93868    13.59636
 Rotational constants (GHZ):         807.91580   436.29137   283.30225
 Zero-point vibrational energy      56220.5 (Joules/Mol)
                                   13.43701 (Kcal/Mol)
 Vibrational temperatures:   2342.71  5499.91  5680.91
          (Kelvin)

 Zero-point correction=                           0.021413 (Hartree/Particle)
 Thermal correction to Energy=                    0.024249
 Thermal correction to Enthalpy=                  0.025193
 Thermal correction to Gibbs Free Energy=         0.003769
 Sum of electronic and zero-point Energies=            -76.307579
 Sum of electronic and thermal Energies=               -76.304744
 Sum of electronic and thermal Enthalpies=             -76.303799
 Sum of electronic and thermal Free Energies=          -76.325223

                     E (Thermal)             CV                S
                      KCal/Mol        Cal/Mol-Kelvin    Cal/Mol-Kelvin
 Total                   15.216              6.009             45.090
 Electronic               0.000              0.000              0.000
 Translational            0.889              2.981             34.608
 Rotational               0.889              2.981             10.475
 Vibrational             13.439              0.048              0.007

 Optimization completed.
    -- Stationary point found.
 Normal termination of Gaussian 16 at Wed Mar 22 14:31:35 2023.
